--- FILE: blastFoam/burstingWindow_workshop/0/T.orig ---

FoamFile
{
    version     2.0;
    format      ascii;
    class       volScalarField;
    object      e;
}
// * * * * * * * * * * * * * * * * * * * * * * * * * * * * * * * * * * * * * //

dimensions      [0 0 0 1 0 0 0];

internalField   uniform 300;

boundaryField
{
    //- Set patchGroups for constraint patches
    #includeEtc "caseDicts/setConstraintTypes"

    building
    {
        type            zeroGradient;
    }

    windows_master
    {
        type            burstCyclicAMI;
        intactPatch
        {
            type      zeroGradient;
        }
    }
    windows_slave
    {
        type            burstCyclicAMI;
        intactPatch
        {
            type      zeroGradient;
        }
    }

    outlet
    {
        type            zeroGradient;
    }

    ground
    {
        type            zeroGradient;
    }

    symmetry
    {
        type            symmetry;
    }
}

// ************************************************************************* //
--- END OF FILE ---

--- FILE: blastFoam/burstingWindow_workshop/0/U.orig ---

FoamFile
{
    version     2.0;
    format      ascii;
    class       volVectorField;
    object      U;
}
// * * * * * * * * * * * * * * * * * * * * * * * * * * * * * * * * * * * * * //

dimensions      [0 1 -1 0 0 0 0];

internalField   uniform (0 0 0);

boundaryField
{
    //- Set patchGroups for constraint patches
    #includeEtc "caseDicts/setConstraintTypes"

    building
    {
        type            slip;
    }

    windows_master
    {
        type            burstCyclicAMI;
        intactPatch
        {
            type        slip;
        }
    }
    windows_slave
    {
        type            burstCyclicAMI;
        intactPatch
        {
            type        slip;
        }
    }

    outlet
    {
        type            zeroGradient;
    }

    ground
    {
        type            slip;
    }

    symmetry
    {
        type            symmetry;
    }
}

// ************************************************************************* //
--- END OF FILE ---

--- FILE: blastFoam/burstingWindow_workshop/0/alpha.c4.orig ---

FoamFile
{
    version     2.0;
    format      ascii;
    class       volScalarField;
    object      alpha.c4;
}
// * * * * * * * * * * * * * * * * * * * * * * * * * * * * * * * * * * * * * //

dimensions      [0 0 0 0 0 0 0];

internalField   uniform 0;

boundaryField
{
    //- Set patchGroups for constraint patches
    #includeEtc "caseDicts/setConstraintTypes"

    building
    {
        type            zeroGradient;
    }

    windows_master
    {
        type            burstCyclicAMI;
        intactPatch
        {
            type      zeroGradient;
        }
    }
    windows_slave
    {
        type            burstCyclicAMI;
        intactPatch
        {
            type      zeroGradient;
        }
    }

    outlet
    {
        type            zeroGradient;
    }

    ground
    {
        type            zeroGradient;
    }

    symmetry
    {
        type            symmetry;
    }
}

// ************************************************************************* //
--- END OF FILE ---

--- FILE: blastFoam/burstingWindow_workshop/0/p.orig ---

FoamFile
{
    version     2.0;
    format      ascii;
    class       volScalarField;
    object      p;
}
// * * * * * * * * * * * * * * * * * * * * * * * * * * * * * * * * * * * * * //

dimensions      [1 -1 -2 0 0 0 0];

internalField   uniform 101298;

boundaryField
{
    //- Set patchGroups for constraint patches
    #includeEtc "caseDicts/setConstraintTypes"

    building
    {
        type            zeroGradient;
    }

    windows_master
    {
        type            burstCyclicAMI;
        intactPatch
        {
            type      zeroGradient;
        }
    }
    windows_slave
    {
        type            burstCyclicAMI;
        intactPatch
        {
            type      zeroGradient;
        }
    }

    outlet
    {
        type            zeroGradient;
    }

    ground
    {
        type            zeroGradient;
    }

    symmetry
    {
        type            symmetry;
    }
}

// ************************************************************************* //
--- END OF FILE ---

--- FILE: blastFoam/burstingWindow_workshop/0/rho.air.orig ---

FoamFile
{
    version     2.0;
    format      ascii;
    class       volScalarField;
    object      rho.air;
}
// * * * * * * * * * * * * * * * * * * * * * * * * * * * * * * * * * * * * * //

dimensions      [1 -3 0 0 0 0 0];

internalField   uniform 1.225;

boundaryField
{
    //- Set patchGroups for constraint patches
    #includeEtc "caseDicts/setConstraintTypes"

    building
    {
        type            zeroGradient;
    }

    windows_master
    {
        type            burstCyclicAMI;
        intactPatch
        {
            type      zeroGradient;
        }
    }
    windows_slave
    {
        type            burstCyclicAMI;
        intactPatch
        {
            type      zeroGradient;
        }
    }

    outlet
    {
        type            zeroGradient;
    }

    ground
    {
        type            zeroGradient;
    }

    symmetry
    {
        type            symmetry;
    }
}

// ************************************************************************* //
--- END OF FILE ---

--- FILE: blastFoam/burstingWindow_workshop/0/rho.c4.orig ---

FoamFile
{
    version     2.0;
    format      ascii;
    class       volScalarField;
    object      rho.c4;
}
// * * * * * * * * * * * * * * * * * * * * * * * * * * * * * * * * * * * * * //

dimensions      [1 -3 0 0 0 0 0];

internalField   uniform 1601;

boundaryField
{
    //- Set patchGroups for constraint patches
    #includeEtc "caseDicts/setConstraintTypes"

    building
    {
        type            zeroGradient;
    }

    windows_master
    {
        type            burstCyclicAMI;
        intactPatch
        {
            type      zeroGradient;
        }
    }
    windows_slave
    {
        type            burstCyclicAMI;
        intactPatch
        {
            type      zeroGradient;
        }
    }

    outlet
    {
        type            zeroGradient;
    }

    ground
    {
        type            zeroGradient;
    }

    symmetry
    {
        type            symmetry;
    }
}

// ************************************************************************* //
--- END OF FILE ---

--- FILE: blastFoam/burstingWindow_workshop/constant/dynamicMeshDict ---

FoamFile
{
    version     2.0;
    format      ascii;
    class       dictionary;
    object      dynamicMeshDict;
}
// * * * * * * * * * * * * * * * * * * * * * * * * * * * * * * * * * * * * * //

dynamicFvMesh   adaptiveFvMesh;
errorEstimator  densityGradient;

// How often to refine
refineInterval  3;

// Refine field in between lower..upper
lowerRefineLevel 0.1;

// If value < unrefineLevel unrefine
unrefineLevel   0.1;

// Have slower than 2:1 refinement
nBufferLayers   2;

// Refine cells only up to maxRefinement levels
maxRefinement   1;

// Write the refinement level as a volScalarField
dumpLevel       true;
// ************************************************************************* //
--- END OF FILE ---

--- FILE: blastFoam/burstingWindow_workshop/constant/phaseProperties ---

FoamFile
{
    version     2.0;
    format      ascii;
    class       dictionary;
    location    "constant";
    object      phaseProperties;
}
// * * * * * * * * * * * * * * * * * * * * * * * * * * * * * * * * * * * * * //

phases (c4 air);                // List of phases

c4
{
    type detonating;
    reactants
    {
        thermoType
        {
            transport   const;
            thermo      eConst;
            equationOfState BirchMurnaghan3;
        }
        equationOfState
        {
            rho0            1601;
            Gamma           0.25;
            pRef            101298;
            K0              8.04e9;
            K0Prime         7.97;
        }
        specie
        {
            molWeight       55.0;
        }
        transport
        {
            mu              0;              // Viscosity
            Pr              1;              // Prandtl number
        }
        thermodynamics
        {
            Cv              1400;           // Heat capacity
            Hf              0.0;
        }
    }
    products
    {
        thermoType
        {
            transport   const;
            thermo      ePolynomial;
            equationOfState JWL;
        }
        equationOfState
        {
            rho0      1601;
            A         609.77e9;
            B         12.95e9;
            R1        4.50;
            R2        1.4;
            omega     0.25;
        }
        specie
        {
            molWeight       55.0;
        }
        transport
        {
            mu              0;              // Viscosity
            Pr              1;              // Prandtl number
        }
        thermodynamics
        {
            // Heat capacity coefficients
            CvCoeffs<8> (413.15 2.1538 0 0 0 0 0 0);
            Sf          0.0;
            Hf          0.0;
        }
    }

    activationModel none;
    initiation
    {
        E0              9.0e9;
    }

    residualRho     1e-6;           // Minimum density of the phase
    residualAlpha   1e-6;          // Minimum volume fraction used for division
}

air
{
    type basic;
    thermoType
    {
        transport   const;
        thermo      eConst;
        equationOfState idealGas;
    }
    equationOfState
    {
        gamma           1.4;            // Heat capactiy ratio
    }
    specie
    {
        molWeight       28.97;
    }
    transport
    {
        mu              0;
        Pr              1;
    }
    thermodynamics
    {
        type        eConst;
        Cv          718;
        Hf          0;
    }

    residualRho     1e-6;
    residualAlpha   1e-6;
}

// ************************************************************************* //
--- END OF FILE ---

--- FILE: blastFoam/burstingWindow_workshop/system/blockMeshDict ---

FoamFile
{
    version     2.0;
    format      ascii;
    class       dictionary;
    object      blockMeshDict;
}
// * * * * * * * * * * * * * * * * * * * * * * * * * * * * * * * * * * * * * //

convertToMeters 1;

vertices
(
    ( -5.0   0.0     0.0) // bottom
    (  10.0  0.0     0.0)
    (  10.0  10.0    0.0)
    ( -5.0   10.0    0.0)
    ( -5.0   0.0     10.0) // top
    (  10.0  0.0     10.0)
    (  10.0  10.0    10.0)
    ( -5.0   10.0    10.0)
);

blocks
(
	 hex (0 1 2 3 4 5 6 7) (60 40 40) simpleGrading (1 1 1)
);

edges
(
);

boundary
(
    ground
    {
        type wall;
        faces
        (
            (0 1 2 3)
        );
    }
    outlet
    {
        type patch;
        faces
        (
            (1 2 6 5)
            (3 2 6 7)
            (0 3 7 4)
            (4 5 6 7)
        );
    }
    symmetry
    {
        type symmetry;
        faces
        (
            (0 1 5 4)
        );
    }
);

mergePatchPairs
(
);

// ************************************************************************* //
--- END OF FILE ---

--- FILE: blastFoam/burstingWindow_workshop/system/controlDict ---

FoamFile
{
    version     2.0;
    format      ascii;
    class       dictionary;
    location    "system";
    object      controlDict;
}
// * * * * * * * * * * * * * * * * * * * * * * * * * * * * * * * * * * * * * //

application     blastFoam;

startFrom       latestTime;

startTime       0;

stopAt          endTime;

endTime         0.01;

deltaT          1e-7;

writeControl    adjustableRunTime;

writeInterval   1e-04;

cycleWrite      0;

writeFormat     ascii;

writePrecision  6;

writeCompression off;

timeFormat      general;

timePrecision   12;

runTimeModifiable true;

adjustTimeStep  yes;

maxCo           0.5;

maxDeltaT       1;

// * * * * * * * * * * * * * * * * * * * * * * * * * * * * * * * * * * * * * //

functions
{
    impulse
    {
        type            impulse;
        writeControl    writeTime;
        pRef            101298;
    }
    overpressure
    {
        type            overpressure;
        writeControl    writeTime;
        store           yes;
        pRef            101298;
    }
    maxPImpulse
    {
        type            fieldMax;
        writeControl    writeTime;
        fields
        (
            overpressure
            impulse
        );
    }
    pProbes
    {
        type blastProbes;
        fields (overpressure impulse);
        probeLocations ((4 0 2) (3 0 2) (5 0 2) (3 0 1) (3 0 3));
    }
};

// ************************************************************************* //
--- END OF FILE ---

--- FILE: blastFoam/burstingWindow_workshop/system/createBafflesDict ---

FoamFile
{
    format      ascii;
    class       dictionary;
    object      createBafflesDict;
}
// * * * * * * * * * * * * * * * * * * * * * * * * * * * * * * * * * * * * * //

// Whether to convert internal faces only (so leave boundary faces intact).
// This is only relevant if your face selection type can pick up boundary
// faces.
internalFacesOnly true;

// Baffles to create.
baffles
{
    windows
    {
        //- Use surface to select faces and orientation.
        type        faceZone;
        zoneName    windows;


        // Generate patchGroup windows with two patches:
        //  - windows_master
        //  - windows_slave
        patchPairs
        {
            type            burstCyclicAMI;
            burstModel      pressure;
            partialBurst    yes;
            pBurst          5e6;
            useDelta        no;
        }
    }
}


// ************************************************************************* //
--- END OF FILE ---

--- FILE: blastFoam/burstingWindow_workshop/system/decomposeParDict ---

FoamFile
{
    version     2.0;
    format      ascii;
    class       dictionary;
    location    "system";
    object      decomposeParDict;
}
// * * * * * * * * * * * * * * * * * * * * * * * * * * * * * * * * * * * * * //

numberOfSubdomains 4; // this is number of proc

method         scotch; // automatic

simpleCoeffs // not auto
{
    n               ( 2 2 1 );
    delta           0.001;
}

distributed     no;

roots           ( );

// ************************************************************************* //
--- END OF FILE ---

--- FILE: blastFoam/burstingWindow_workshop/system/fvSchemes ---

FoamFile
{
    version     2.0;
    format      ascii;
    class       dictionary;
    location    "system";
    object      fvSchemes;
}
// * * * * * * * * * * * * * * * * * * * * * * * * * * * * * * * * * * * * * //

fluxScheme      Tadmor;

ddtSchemes
{
    default         Euler;
    timeIntegrator  RK2SSP;
}

gradSchemes
{
    default         cellMDLimited leastSquares 1.0;
}

divSchemes
{
    default         none;
    div(alphaRhoPhi.c4,lambda.c4) Riemann;
}

laplacianSchemes
{
    default         Gauss linear corrected;
}

interpolationSchemes
{
    default             cubic;
    reconstruct(alpha)  Minmod;
    reconstruct(rho)    Minmod;
    reconstruct(U)      MinmodV;
    reconstruct(e)      Minmod;
    reconstruct(p)      Minmod;
    reconstruct(speedOfSound)      Minmod;

    reconstruct(lambda.c4) Minmod;
}

snGradSchemes
{
    default         corrected;
}


// ************************************************************************* //
--- END OF FILE ---

--- FILE: blastFoam/burstingWindow_workshop/system/fvSolution ---

FoamFile
{
    version     2.0;
    format      ascii;
    class       dictionary;
    location    "system";
    object      fvSolution;
}
// * * * * * * * * * * * * * * * * * * * * * * * * * * * * * * * * * * * * * //

solvers
{
    "(rho|rhoU|rhoE|alpha|.*)"
    {
        solver          diagonal;
    }
}


// ************************************************************************* //
--- END OF FILE ---

--- FILE: blastFoam/burstingWindow_workshop/system/setFieldsDict ---

FoamFile
{
    version     2.0;
    format      ascii;
    class       dictionary;
    location    "system";
    object      setFieldsDict;
}
// * * * * * * * * * * * * * * * * * * * * * * * * * * * * * * * * * * * * * //

fields (alpha.c4);

defaultFieldValues
(
    volScalarFieldValue alpha.c4 0
);


regions
(
    hemisphericalMassToCell
    {
        centre (0.0 0 1.0);
        mass   25.0;
        rho 1601;
        backup
        {
            centre (0.0 0 1.0);
            radius 2;
        }
        refineInternal yes;
        level 4;

        fieldValues
        (
            volScalarFieldValue alpha.c4    1
        );
    }
);


// ************************************************************************* //
--- END OF FILE ---

--- FILE: blastFoam/burstingWindow_workshop/system/snappyHexMeshDict ---

FoamFile
{
  version     2.0;
  format      ascii;
  class       dictionary;
  object      snappyHexMeshDict;
}
// * * * * * * * * * * * * * * * * * * * * * * * * * * * * * * * * * * * * * //

castellatedMesh on;
snap            off;
addLayers       off;

geometry
{
    building
    {
        type triSurfaceMesh;
        file "building.stl";
        scale 0.001;
    }
};

castellatedMeshControls
{
    // Refinement parameters
    // ~~~~~~~~~~~~~~~~~~~~~

    // If local number of cells is >= maxLocalCells on any processor
    // switches from from refinement followed by balancing
    // (current method) to (weighted) balancing before refinement.
    maxLocalCells 10000000;

    // Overall cell limit (approximately). Refinement will stop immediately
    // upon reaching this number so a refinement level might not complete.
    // Note that this is the number of cells before removing the part which
    // is not 'visible' from the keepPoint. The final number of cells might
    // actually be a lot less.
    maxGlobalCells 200000000;

    // The surface refinement loop might spend lots of iterations refining just a
    // few cells. This setting will cause refinement to stop if <= minimumRefine
    // are selected for refinement. Note: it will at least do one iteration
    // (unless the number of cells to refine is 0)
    minRefinementCells 2;

    maxLoadUnBalance 0.1;

    // Number of buffer layers between different levels.
    // 1 means normal 2:1 refinement restriction, larger means slower
    // refinement.
    nCellsBetweenLevels 2;

    resolveFeatureAngle 30;
    allowFreeStandingZoneFaces false;

    features
    (
        {
            file  "building.extendedFeatureEdgeMesh";
            level 0;
        }
    );

    refinementSurfaces
    {
        building
        {
            level (2 2);
            patchInfo
            {
                type wall;
            }
        }
    }


    refinementRegions
    {
    }

    locationInMesh (0 1 1.5);
}

snapControls
{

    nSmoothPatch    3;
    tolerance       1.0;
    nSolveIter      100;
    nRelaxIter      10;

    nFeatureSnapIter 15;

    explicitFeatureSnap    true;
    multiRegionFeatureSnap true;//false;
    implicitFeatureSnap    false;//true;
}

addLayersControls
{
    featureAngle              100;
    slipFeatureAngle          30;

    nLayerIter                50;
    nRelaxedIter              20;
    nRelaxIter                5;

    nGrow                     0;

    nSmoothSurfaceNormals     1;
    nSmoothNormals            3;
    nSmoothThickness          10;
    maxFaceThicknessRatio     0.5;
    maxThicknessToMedialRatio 0.3;

    minMedialAxisAngle        90;
    nMedialAxisIter           10;

    nBufferCellsNoExtrude     0;
    additionalReporting       false;
//    nSmoothDisplacement       0;
//    detectExtrusionIsland     false;

    layers
    {
    }

    relativeSizes       true;
    expansionRatio      1.2;
    finalLayerThickness 0.5;
    minThickness        1e-3;
}

meshQualityControls
{
    maxNonOrtho 65;

    maxBoundarySkewness 20;

    maxInternalSkewness 4;

    maxConcave 80;

    // Minimum cell pyramid volume; case dependent
    minVol 1e-13;

    //  1e-15 (small positive) to enable tracking
    // -1e+30 (large negative) for best layer insertion
    minTetQuality 1e-15;

    // if >0 : preserve single cells with all points on the surface if the
    // resulting volume after snapping (by approximation) is larger than
    // minVolCollapseRatio times old volume (i.e. not collapsed to flat cell).
    //  If <0 : delete always.
    //minVolCollapseRatio 0.5;

    minArea          -1;

    minTwist          0.02;

    minDeterminant    0.001;

    minFaceWeight     0.05;

    minVolRatio       0.01;

    minTriangleTwist -1;

    nSmoothScale   4;

    errorReduction 0.75;

    relaxed
    {
        maxNonOrtho   75;
    }
}

writeFlags
(
//     scalarLevels
//     history
//     mesh
//     noRefinement
);
// debugFlags
// (
// //     layerInfo
// );
// outputFlags
// (
//     layerInfoa
// );
// debug 1;
mergeTolerance 1e-6;

// ************************************************************************* //
--- END OF FILE ---

--- FILE: blastFoam/burstingWindow_workshop/system/surfaceFeaturesDict ---

FoamFile
{
    version     2.0;
    format      ascii;
    class       dictionary;
    object      surfaceFeatureExtractDict;
}
// * * * * * * * * * * * * * * * * * * * * * * * * * * * * * * * * * * * * * //

surfaces
(
    "building.stl"
);

// Identify a feature when angle between faces < includedAngle
includedAngle   120;

subsetFeatures
{
    // Keep nonManifold edges (edges with >2 connected faces)
    nonManifoldEdges       yes;

    // Keep open edges (edges with 1 connected face)
    openEdges       yes;
}


// ************************************************************************* //
--- END OF FILE ---

--- FILE: blastFoam/burstingWindow_workshop/system/topoSetDict ---

FoamFile
{
    version     2.0;
    format      ascii;
    class       dictionary;
    object      topoSetDict;
}
// * * * * * * * * * * * * * * * * * * * * * * * * * * * * * * * * * * * * * //

actions
(
    {
        name    windows;
        type    faceZoneSet;
        action  new;
        source  searchableSurfaceToFaceZone;
        sourceInfo
        {
            surface searchableBox;
            min (1.125 -2.375 -1);
            max (5.875 2.375 3.875);
        }
    }
);

// ************************************************************************* //
--- END OF FILE ---

