--- FILE: blastFoam/building3DWorkshop/0/T.orig ---

FoamFile
{
    version     2.0;
    format      ascii;
    class       volScalarField;
    object      e;
}
// * * * * * * * * * * * * * * * * * * * * * * * * * * * * * * * * * * * * * //

dimensions      [0 0 0 1 0 0 0];

internalField   uniform 300;

boundaryField
{
    //- Set patchGroups for constraint patches
    #includeEtc "caseDicts/setConstraintTypes"

    walls
    {
        type            zeroGradient;
    }

    outlet
    {
        type            zeroGradient;
    }

    ground
    {
        type            zeroGradient;
    }
}

// ************************************************************************* //
--- END OF FILE ---

--- FILE: blastFoam/building3DWorkshop/0/U.orig ---

FoamFile
{
    version     2.0;
    format      ascii;
    class       volVectorField;
    object      U;
}
// * * * * * * * * * * * * * * * * * * * * * * * * * * * * * * * * * * * * * //

dimensions      [0 1 -1 0 0 0 0];

internalField   uniform (0 0 0);

boundaryField
{
    //- Set patchGroups for constraint patches
    #includeEtc "caseDicts/setConstraintTypes"

    walls
    {
        type            slip;
    }

    outlet
    {
        type            zeroGradient;
        inletValue      uniform (0 0 0);
        value           uniform (0 0 0);
    }

    ground
    {
        type            slip;
    }
}

// ************************************************************************* //
--- END OF FILE ---

--- FILE: blastFoam/building3DWorkshop/0/alpha.c4.orig ---

FoamFile
{
    version     2.0;
    format      ascii;
    class       volScalarField;
    object      alpha.c4;
}
// * * * * * * * * * * * * * * * * * * * * * * * * * * * * * * * * * * * * * //

dimensions      [0 0 0 0 0 0 0];

internalField   uniform 0;

boundaryField
{
    //- Set patchGroups for constraint patches
    #includeEtc "caseDicts/setConstraintTypes"

    walls
    {
        type            zeroGradient;
    }

    outlet
    {
        type            zeroGradient;
    }

    ground
    {
        type            zeroGradient;
    }
}

// ************************************************************************* //
--- END OF FILE ---

--- FILE: blastFoam/building3DWorkshop/0/p.orig ---

FoamFile
{
    version     2.0;
    format      ascii;
    class       volScalarField;
    object      p;
}
// * * * * * * * * * * * * * * * * * * * * * * * * * * * * * * * * * * * * * //

dimensions      [1 -1 -2 0 0 0 0];

internalField   uniform 101298;

boundaryField
{
    //- Set patchGroups for constraint patches
    #includeEtc "caseDicts/setConstraintTypes"

    walls
    {
        type            zeroGradient;
    }

    outlet
    {
        type            zeroGradient;
    }

    ground
    {
        type            zeroGradient;
    }
}

// ************************************************************************* //
--- END OF FILE ---

--- FILE: blastFoam/building3DWorkshop/0/rho.air.orig ---

FoamFile
{
    version     2.0;
    format      ascii;
    class       volScalarField;
    object      rho.air;
}
// * * * * * * * * * * * * * * * * * * * * * * * * * * * * * * * * * * * * * //

dimensions      [1 -3 0 0 0 0 0];

internalField   uniform 1.225;

boundaryField
{
    //- Set patchGroups for constraint patches
    #includeEtc "caseDicts/setConstraintTypes"

    walls
    {
        type            zeroGradient;
    }

    outlet
    {
        type            zeroGradient;
    }

    ground
    {
        type            zeroGradient;
    }
}

// ************************************************************************* //
--- END OF FILE ---

--- FILE: blastFoam/building3DWorkshop/0/rho.c4.orig ---

FoamFile
{
    version     2.0;
    format      ascii;
    class       volScalarField;
    object      rho.c4;
}
// * * * * * * * * * * * * * * * * * * * * * * * * * * * * * * * * * * * * * //

dimensions      [1 -3 0 0 0 0 0];

internalField   uniform 1601;

boundaryField
{
    //- Set patchGroups for constraint patches
    #includeEtc "caseDicts/setConstraintTypes"

    walls
    {
        type            zeroGradient;
    }

    outlet
    {
        type            zeroGradient;
    }

    ground
    {
        type            zeroGradient;
    }
}

// ************************************************************************* //
--- END OF FILE ---

--- FILE: blastFoam/building3DWorkshop/constant/dynamicMeshDict ---

FoamFile
{
    version     2.0;
    format      ascii;
    class       dictionary;
    object      dynamicMeshDict;
}
// * * * * * * * * * * * * * * * * * * * * * * * * * * * * * * * * * * * * * //

dynamicFvMesh   adaptiveFvMesh;
errorEstimator  densityGradient;

// protectedPatches (walls);

// How often to refine
refineInterval  2;

loadBalance
{
    balance yes;
    balanceInterval 10;
    allowableImbalance 0.15;
    method scotch;
}

// Refine field in between lower..upper
lowerRefineLevel 0.1;

// If value < unrefineLevel unrefine
unrefineLevel   0.1;

// Have slower than 2:1 refinement
nBufferLayers   3;

// Refine cells only up to maxRefinement levels
maxRefinement   2;

// Stop refinement if maxCells reached
maxCells        10000000;

// Write the refinement level as a volScalarField
dumpLevel       true;
// ************************************************************************* //
--- END OF FILE ---

--- FILE: blastFoam/building3DWorkshop/constant/phaseProperties ---

FoamFile
{
    version     2.0;
    format      ascii;
    class       dictionary;
    location    "constant";
    object      phaseProperties;
}
// * * * * * * * * * * * * * * * * * * * * * * * * * * * * * * * * * * * * * //

phases (c4 air);                // List of phases

c4
{
    type detonating;
    reactants
    {
        thermoType
        {
            transport   const;
            thermo      eConst;
            equationOfState Murnaghan;
        }
        equationOfState
        {
            Gamma           0.25;
            pRef            101298;
            rho0            1601;
            K0              0;
        }
        specie
        {
            molWeight       55.0;
        }
        transport
        {
            mu              0;              // Viscosity
            Pr              1;              // Prandtl number
        }
        thermodynamics
        {
            Cv              1400;           // Heat capacity
            Hf              0.0;
        }
    }
    products
    {
        thermoType
        {
            transport   const;
            thermo      eConst;
            equationOfState JWL;
        }
        equationOfState
        {
            rho0      1601;
            A         609.77e9;
            B         12.95e9;
            R1        4.50;
            R2        1.4;
            omega     0.25;
        }
        specie
        {
            molWeight       55.0;
        }
        transport
        {
            mu              0;              // Viscosity
            Pr              1;              // Prandtl number
        }
        thermodynamics
        {
            Cv              1400;           // Heat capacity
            Hf              0.0;
        }
    }

    activationModel linear;
    initiation
    {
        E0              9.0e9;   // detonation energy in units of pressure
        points     ((0 0 0.5));     // Detonation points
        vDet       7850;            // Detonation velocity [m/s]
        useCOM yes;                 // Overridden by the detonation points
    }

    residualRho     1e-6;           // Minimum density of the phase
    residualAlpha   1e-10;          // Minimum volume fraction used for division
}

air
{
    type basic;
    thermoType
    {
        transport   const;
        thermo      eConst;
        equationOfState idealGas;
    }
    equationOfState
    {
        gamma           1.4;            // Heat capactiy ratio
    }
    specie
    {
        molWeight       28.97;
    }
    transport
    {
        mu              0;
        Pr              1;
    }
    thermodynamics
    {
        type        eConst;
        Cv          718;
        Hf          0;
    }

    residualRho     1e-6;
    residualAlpha   1e-10;
}

// ************************************************************************* //
--- END OF FILE ---

--- FILE: blastFoam/building3DWorkshop/system/blockMeshDict ---

FoamFile
{
    version     2.0;
    format      ascii;
    class       dictionary;
    object      blockMeshDict;
}
// * * * * * * * * * * * * * * * * * * * * * * * * * * * * * * * * * * * * * //

convertToMeters 1;

vertices
(
    ( -5.0 -5.0     0.0) // bottom
    (  5.0 -5.0     0.0)
    (  5.0  5.0     0.0)
    ( -5.0  5.0     0.0)
    ( -5.0 -5.0     5.0) // top
    (  5.0 -5.0     5.0)
    (  5.0  5.0     5.0)
    ( -5.0  5.0     5.0)
);

blocks
(
	 hex (0 1 2 3 4 5 6 7) (25 25 10) simpleGrading (1 1 1)
);

edges
(
);

boundary
(
    ground
    {
        type patch;
        faces
        (
            (0 1 2 3)
        );
    }
    outlet
    {
        type patch;
        faces
        (
            (0 1 5 4)
            (1 2 6 5)
            (3 2 6 7)
            (0 3 7 4)
            (4 5 6 7)
        );
    }

);

mergePatchPairs
(
);

// ************************************************************************* //
--- END OF FILE ---

--- FILE: blastFoam/building3DWorkshop/system/controlDict ---

FoamFile
{
    version     2.0;
    format      ascii;
    class       dictionary;
    location    "system";
    object      controlDict;
}
// * * * * * * * * * * * * * * * * * * * * * * * * * * * * * * * * * * * * * //

application     blastFoam;

startFrom       startTime;

startTime       0;

stopAt          endTime;

endTime         0.0025;

deltaT          1e-7;

writeControl    adjustableRunTime;

writeInterval   5e-5;

cycleWrite      0;

writeFormat     ascii;

writePrecision  6;

writeCompression off;

timeFormat      general;

timePrecision   12;

runTimeModifiable true;

adjustTimeStep  yes;

maxCo           0.5;

maxDeltaT       1;

// * * * * * * * * * * * * * * * * * * * * * * * * * * * * * * * * * * * * * //

functions
{
    impulse
    {
        type                impulse;

        writeControl        writeTime;
        pRef                101298;
    }
    overpressure
    {
        type                overpressure;

        writeControl        writeTime;
        store               yes;
        pRef                101298;
    }
    maxPImpulse
    {
        type                fieldMinMax;

        writeControl        writeTime;
        fields
        (
            overpressure
            impulse
        );
    }

    surfaces
    {
        type                surfaces;
        writeControl        adjustableRunTime;
        writeInterval       1e-4;
        interpolate         false;
        interpolationScheme cellPointFace;
        surfaceFormat       vtkTimeSeries;
        fields ( p );
        surfaces
        (
            ground
            {
                type        patch;
                patches     (ground);
                triangulate false;
            }
            pContours
            {
                type        isoSurface;
                isoField    p;
                isoValues   (1.1e5);
            }
            zNormal
            {
                type        cuttingPlane;
                planeType   pointAndNormal;
                pointAndNormalDict
                {
                    point   (0 0 0.5);
                    normal  (0 0 1);
                }
                interpolate true;
            }
            yNormal
            {
                type        cuttingPlane;
                planeType   pointAndNormal;
                pointAndNormalDict
                {
                    point   (0 0 0.5);
                    normal  (0 1 0);
                }
                interpolate true;
            }
            xNormal
            {
                type        cuttingPlane;
                planeType   pointAndNormal;
                pointAndNormalDict
                {
                    point   (0 0 0.5);
                    normal  (1 0 0);
                }
                interpolate true;
            }
        );
    }

    pressureProbes
    {
        type                blastProbes;
        writeControl        timeStep;
        writeInterval       1;
        adjustLocations     yes;
        append yes;
        probeLocations
        (
            // probe locations in ( x y z ) format
            // unlimited number -- needs to be inside the domain!
            ( 2.0 0 0.5)    // In mesh
            (0 2.1 1.0)     // Not in mesh
            // etc.
        );
        fields
        (
            p
        );
    }
};


// ************************************************************************* //
--- END OF FILE ---

--- FILE: blastFoam/building3DWorkshop/system/decomposeParDict ---

FoamFile
{
    version     2.0;
    format      ascii;
    class       dictionary;
    location    "system";
    object      decomposeParDict;
}
// * * * * * * * * * * * * * * * * * * * * * * * * * * * * * * * * * * * * * //

numberOfSubdomains 4; // this is number of proc

method         scotch; // automatic

simpleCoeffs // not auto
{
    n               ( 2 2 1 );
    delta           0.001;
}

distributed     no;

roots           ( );


// ************************************************************************* //
--- END OF FILE ---

--- FILE: blastFoam/building3DWorkshop/system/fvSchemes ---

FoamFile
{
    version     2.0;
    format      ascii;
    class       dictionary;
    location    "system";
    object      fvSchemes;
}
// * * * * * * * * * * * * * * * * * * * * * * * * * * * * * * * * * * * * * //

fluxScheme      Tadmor;

ddtSchemes
{
    default         Euler;
    timeIntegrator  RK2SSP;
}

gradSchemes
{
    default         cellMDLimited leastSquares 1.0;
}

divSchemes
{
    default         none;
    div(alphaRhoPhi.c4,lambda.c4) Riemann;
}

laplacianSchemes
{
    default         Gauss linear corrected;
}

interpolationSchemes
{
    default             linear;
    reconstruct(alpha)  vanAlbada;
    reconstruct(rho)    vanAlbada;
    reconstruct(U)      vanAlbadaV;
    reconstruct(e)      vanAlbada;
    reconstruct(p)      vanAlbada;
    reconstruct(speedOfSound)      vanAlbada;

    reconstruct(lambda.c4) vanAlbada;
}

snGradSchemes
{
    default         corrected;
}


// ************************************************************************* //
--- END OF FILE ---

--- FILE: blastFoam/building3DWorkshop/system/fvSolution ---

FoamFile
{
    version     2.0;
    format      ascii;
    class       dictionary;
    location    "system";
    object      fvSolution;
}
// * * * * * * * * * * * * * * * * * * * * * * * * * * * * * * * * * * * * * //

solvers
{
    "(rho|rhoU|rhoE|alpha|.*)"
    {
        solver          diagonal;
    }
}


// ************************************************************************* //
--- END OF FILE ---

--- FILE: blastFoam/building3DWorkshop/system/setFieldsDict ---

FoamFile
{
    version     2.0;
    format      ascii;
    class       dictionary;
    location    "system";
    object      setFieldsDict;
}
// * * * * * * * * * * * * * * * * * * * * * * * * * * * * * * * * * * * * * //

fields (alpha.c4);
nBufferLayers 2;

defaultFieldValues
(
    volScalarFieldValue alpha.c4 0
);


regions
(
    sphericalMassToCell // Use cylinder for 3D
    {
        centre (0 0 0.5);
        p1 (0 0 0.25);
        p2 (0 0 0.75);
        radius 0.1;
        mass 10;
        rho 1601;
        backup
        {
            centre (0 0 0.5);
            p1 (0 0 0.0);
            p2 (0 0 1.0);
            radius 0.75;
        }
        refineInternal yes;
        level 3;

        fieldValues
        (
            volScalarFieldValue alpha.c4    1
        );
    }

    // patchToFace // Refine walls
    // {
    //     name wall;
    //     level 3;
    //     refineFaces yes;
    // }
);


// ************************************************************************* //
--- END OF FILE ---

--- FILE: blastFoam/building3DWorkshop/system/snappyHexMeshDict ---

FoamFile
{
  version     2.0;
  format      ascii;
  class       dictionary;
  object      snappyHexMeshDict;
}
// * * * * * * * * * * * * * * * * * * * * * * * * * * * * * * * * * * * * * //

castellatedMesh on;
snap            off;
addLayers       off;

geometry
{
    walls
    {
        type triSurfaceMesh;
        file "L_Wall.stl";
        scale 0.001;
    }
};

castellatedMeshControls
{
    // Refinement parameters
    // ~~~~~~~~~~~~~~~~~~~~~

    // If local number of cells is >= maxLocalCells on any processor
    // switches from from refinement followed by balancing
    // (current method) to (weighted) balancing before refinement.
    maxLocalCells 10000000;

    // Overall cell limit (approximately). Refinement will stop immediately
    // upon reaching this number so a refinement level might not complete.
    // Note that this is the number of cells before removing the part which
    // is not 'visible' from the keepPoint. The final number of cells might
    // actually be a lot less.
    maxGlobalCells 200000000;

    // The surface refinement loop might spend lots of iterations refining just a
    // few cells. This setting will cause refinement to stop if <= minimumRefine
    // are selected for refinement. Note: it will at least do one iteration
    // (unless the number of cells to refine is 0)
    minRefinementCells 2;

    maxLoadUnBalance 0.1;

    // Number of buffer layers between different levels.
    // 1 means normal 2:1 refinement restriction, larger means slower
    // refinement.
    nCellsBetweenLevels 2;

    resolveFeatureAngle 30;
    allowFreeStandingZoneFaces false;

    features
    (
        {
            file  "L_Wall.extendedFeatureEdgeMesh";
            level 0;
        }
    );

    refinementSurfaces
    {
        walls
        {
            level (0 0);
            patchInfo { type wall; }
        }
    }


    refinementRegions
    {
    }

    locationInMesh (0 0 0.5);
}

snapControls
{

    nSmoothPatch    3;
    tolerance       2.0;
    nSolveIter      100;
    nRelaxIter      5;

    nFeatureSnapIter 10;

    explicitFeatureSnap    true;
    multiRegionFeatureSnap false;
    implicitFeatureSnap    false;
}

addLayersControls
{
    featureAngle              100;
    slipFeatureAngle          30;

    nLayerIter                50;
    nRelaxedIter              20;
    nRelaxIter                5;

    nGrow                     0;

    nSmoothSurfaceNormals     1;
    nSmoothNormals            3;
    nSmoothThickness          10;
    maxFaceThicknessRatio     0.5;
    maxThicknessToMedialRatio 0.3;

    minMedialAxisAngle        90;
    nMedialAxisIter           10;

    nBufferCellsNoExtrude     0;
    additionalReporting       false;
//    nSmoothDisplacement       0;
//    detectExtrusionIsland     false;

    layers
    {
    }

    relativeSizes       true;
    expansionRatio      1.2;
    finalLayerThickness 0.5;
    minThickness        1e-3;
}

meshQualityControls
{
    maxNonOrtho 65;

    maxBoundarySkewness 20;

    maxInternalSkewness 4;

    maxConcave 80;

    // Minimum cell pyramid volume; case dependent
    minVol 1e-13;

    //  1e-15 (small positive) to enable tracking
    // -1e+30 (large negative) for best layer insertion
    minTetQuality 1e-15;

    // if >0 : preserve single cells with all points on the surface if the
    // resulting volume after snapping (by approximation) is larger than
    // minVolCollapseRatio times old volume (i.e. not collapsed to flat cell).
    //  If <0 : delete always.
    //minVolCollapseRatio 0.5;

    minArea          -1;

    minTwist          0.02;

    minDeterminant    0.001;

    minFaceWeight     0.05;

    minVolRatio       0.01;

    minTriangleTwist -1;

    nSmoothScale   4;

    errorReduction 0.75;

    relaxed
    {
        maxNonOrtho   75;
    }
}

writeFlags
(
    scalarLevels
    layerSets
    layerFields
//     mesh
//     noRefinement
);
// debugFlags
// (
//     layerInfo
// );
// outputFlags
// (
//     layerInfo
// );
// debug 1;
mergeTolerance 1e-6;

// ************************************************************************* //
--- END OF FILE ---

--- FILE: blastFoam/building3DWorkshop/system/surfaceFeaturesDict ---

FoamFile
{
    version     2.0;
    format      ascii;
    class       dictionary;
    object      surfaceFeatureExtractDict;
}
// * * * * * * * * * * * * * * * * * * * * * * * * * * * * * * * * * * * * * //

surfaces
(
    "L_Wall.stl"
);

// Identify a feature when angle between faces < includedAngle
includedAngle   120;

subsetFeatures
{
    // Keep nonManifold edges (edges with >2 connected faces)
    nonManifoldEdges       yes;

    // Keep open edges (edges with 1 connected face)
    openEdges       yes;
}


// ************************************************************************* //
--- END OF FILE ---

