--- FILE: blastFoam/internalDetonation/internalDetonation/0/T.orig ---

FoamFile
{
    version     2.0;
    format      ascii;
    class       volScalarField;
    object      T;
}
// * * * * * * * * * * * * * * * * * * * * * * * * * * * * * * * * * * * * * //

dimensions      [0 0 0 1 0 0 0];

internalField   uniform 300;

boundaryField
{
    walls
    {
        type            zeroGradient;
    }

    outlet
    {
        type            zeroGradient;
    }

    defaultFaces
    {
        type            empty;
    }
}

// ************************************************************************* //
--- END OF FILE ---

--- FILE: blastFoam/internalDetonation/internalDetonation/0/U.orig ---

FoamFile
{
    version     2.0;
    format      ascii;
    class       volVectorField;
    object      U;
}
// * * * * * * * * * * * * * * * * * * * * * * * * * * * * * * * * * * * * * //

dimensions      [0 1 -1 0 0 0 0];

internalField   uniform (0 0 0);

boundaryField
{
    walls
    {
        type            slip;
    }

    outlet
    {
        type            zeroGradient;
        inletValue      uniform (0 0 0);
        value           uniform (0 0 0);
    }

    defaultFaces
    {
        type            empty;
    }
}

// ************************************************************************* //
--- END OF FILE ---

--- FILE: blastFoam/internalDetonation/internalDetonation/0/alpha.c4.orig ---

FoamFile
{
    version     2.0;
    format      ascii;
    class       volScalarField;
    object      alpha.c4;
}
// * * * * * * * * * * * * * * * * * * * * * * * * * * * * * * * * * * * * * //

dimensions      [0 0 0 0 0 0 0];

internalField   uniform 0;

boundaryField
{
    walls
    {
        type            zeroGradient;
    }

    outlet
    {
        type            zeroGradient;
    }

    defaultFaces
    {
        type            empty;
    }
}

// ************************************************************************* //
--- END OF FILE ---

--- FILE: blastFoam/internalDetonation/internalDetonation/0/p.orig ---

FoamFile
{
    version     2.0;
    format      ascii;
    class       volScalarField;
    object      p;
}
// * * * * * * * * * * * * * * * * * * * * * * * * * * * * * * * * * * * * * //

dimensions      [1 -1 -2 0 0 0 0];

internalField   uniform 101298;

boundaryField
{
    walls
    {
        type            zeroGradient;
    }

    outlet
    {
        type            zeroGradient;
    }

    defaultFaces
    {
        type            empty;
    }
}

// ************************************************************************* //
--- END OF FILE ---

--- FILE: blastFoam/internalDetonation/internalDetonation/0/rho.air.orig ---

FoamFile
{
    version     2.0;
    format      ascii;
    class       volScalarField;
    object      rho.air;
}
// * * * * * * * * * * * * * * * * * * * * * * * * * * * * * * * * * * * * * //

dimensions      [1 -3 0 0 0 0 0];

internalField   uniform 1.225;

boundaryField
{
    walls
    {
        type            zeroGradient;
    }

    outlet
    {
        type            zeroGradient;
    }

    defaultFaces
    {
        type            empty;
    }
}

// ************************************************************************* //
--- END OF FILE ---

--- FILE: blastFoam/internalDetonation/internalDetonation/0/rho.c4.orig ---

FoamFile
{
    version     2.0;
    format      ascii;
    class       volScalarField;
    object      rho.c4;
}
// * * * * * * * * * * * * * * * * * * * * * * * * * * * * * * * * * * * * * //

dimensions      [1 -3 0 0 0 0 0];

internalField   uniform 1601;

boundaryField
{
    walls
    {
        type            zeroGradient;
    }

    outlet
    {
        type            zeroGradient;
    }

    defaultFaces
    {
        type            empty;
    }
}

// ************************************************************************* //
--- END OF FILE ---

--- FILE: blastFoam/internalDetonation/internalDetonation/constant/dynamicMeshDict ---

FoamFile
{
    version     2.0;
    format      ascii;
    class       dictionary;
    object      dynamicMeshDict;
}
// * * * * * * * * * * * * * * * * * * * * * * * * * * * * * * * * * * * * * //

dynamicFvMesh   adaptiveFvMesh;
errorEstimator  densityGradient;

// How often to refine
refineInterval  3;

// Refine field in between lower..upper
lowerRefineLevel 0.1;

// If value < unrefineLevel unrefine
unrefineLevel   0.1;

// Have slower than 2:1 refinement
nBufferLayers   3;

// Refine cells only up to maxRefinement levels
maxRefinement   2;

// Write the refinement level as a volScalarField
dumpLevel       true;
// ************************************************************************* //
--- END OF FILE ---

--- FILE: blastFoam/internalDetonation/internalDetonation/constant/phaseProperties ---

FoamFile
{
    version     2.0;
    format      ascii;
    class       dictionary;
    location    "constant";
    object      phaseProperties;
}
// * * * * * * * * * * * * * * * * * * * * * * * * * * * * * * * * * * * * * //

phases (c4 air);

radiationModel none;

c4
{
    type detonating;
    reactants
    {
        thermoType
        {
            transport   const;
            thermo      eConst;
            equationOfState Murnaghan;
        }
        equationOfState
        {
            Gamma           0.25;
            pRef            101298;
            rho0            1601;
            K0              0;
        }
        specie
        {
            molWeight       55.0;
        }
        transport
        {
            mu              0;              // Viscosity
            Pr              1;              // Prandtl number
        }
        thermodynamics
        {
            Cv              1400;           // Heat capacity
            Hf              0.0;
        }
    }
    products
    {
        thermoType
        {
            transport   const;
            thermo      eConst;
            equationOfState JWL;
        }
        equationOfState
        {
            rho0      1601;
            A         609.77e9;
            B         12.95e9;
            R1        4.50;
            R2        1.4;
            omega     0.25;
        }
        specie
        {
            molWeight       55.0;
        }
        transport
        {
            mu              0;              // Viscosity
            Pr              1;              // Prandtl number
        }
        thermodynamics
        {
            Cv              1400;           // Heat capacity
            Hf              0.0;
        }
    }

    afterburnModel Miller;

    MillerCoeffs
    {
        Q0  10e6;
        m   0.5;
        n   0.1667;
        a   0.0065;

        pMin 1e5;
        pScale 1e-6; // convert to MPa
    }

    activationModel linear;
    initiation
    {
        E0          9.0e9; // true or false
        points     ((0 0 0.05)); // m center top detonated
        vDet       7850; // 8285; // m/s
        pRef       101298; // refernece pressure for initialization [Pa]
    }

    residualRho     1e-6;           // Minimum density of the phase
    residualAlpha   1e-10;          // Minimum volume fraction used for division
}

air
{
    type basic;
    thermoType
    {
        transport   const;
        thermo      eConst;
        equationOfState idealGas;
    }
    equationOfState
    {
        gamma           1.4;            // Heat capactiy ratio
    }
    specie
    {
        molWeight       28.97;
    }
    transport
    {
        mu              0;
        Pr              1;
    }
    thermodynamics
    {
        type        eConst;
        Cv          718;
        Hf          0;
    }

    residualRho     1e-6;
    residualAlpha   1e-10;
}

// ************************************************************************* //
--- END OF FILE ---

--- FILE: blastFoam/internalDetonation/internalDetonation/system/blockMeshDict ---

FoamFile
{
    version     2.0;
    format      ascii;
    class       dictionary;
    object      blockMeshDict;
}
// * * * * * * * * * * * * * * * * * * * * * * * * * * * * * * * * * * * * * //

convertToMeters 1;

vertices
(
    (0      0       0)
    (4.5    0       0)
    (5      0       0)
    (0      2       0)
    (4.5    2       0)
    (5      2       0)
    (0      2.5     0)
    (4.5    2.5     0)
    (5      2.5     0)

    (0      0       2)
    (4.5    0       2)
    (5      0       2)
    (0      2       2)
    (4.5    2       2)
    (5      2       2)
    (0      2.5     2)
    (4.5    2.5     2)
    (5      2.5     2)
);

blocks
(
	 hex (0 1 4 3 9 10 13 12) (16 8 10) simpleGrading (1 1 1)
     hex (1 2 5 4 10 11 14 13) (2 8 10) simpleGrading (1 1 1)
     hex (3 4 7 6 12 13 16 15) (16 2 10) simpleGrading (1 1 1)
     hex (4 5 8 7 13 14 17 16) (2 2 10) simpleGrading (1 1 1)
);

edges
(
);

boundary
(

    outlet
    {
        type patch;
        faces
        (
            (5 8 17 14)
            (7 8 17 16)
        );
    }
    walls
    {
        type wall;
        faces
        (
            (0 1 10 9)
            (1 2 11 10)
            (2 5 14 11)
            (6 7 16 15)
            (3 6 15 12)
            (0 3 12 9)

            (0 1 4 3)
            (1 2 5 4)
            (3 4 7 6)
            (4 5 8 7)
            (9 10 13 12)
            (10 11 14 13)
            (12 13 16 15)
            (13 14 17 16)
        );
    }

);

mergePatchPairs
(
);

// ************************************************************************* //
--- END OF FILE ---

--- FILE: blastFoam/internalDetonation/internalDetonation/system/controlDict ---

FoamFile
{
    version     2.0;
    format      ascii;
    class       dictionary;
    location    "system";
    object      controlDict;
}
// * * * * * * * * * * * * * * * * * * * * * * * * * * * * * * * * * * * * * //

application     blastFoam;

startFrom       startTime;

startTime       0;

stopAt          endTime;

endTime         0.005;

deltaT          1e-8;

writeControl    adjustableRunTime;

writeInterval   1e-4;

cycleWrite      0;

writeFormat     binary;

writePrecision  6;

writeCompression off;

timeFormat      general;

timePrecision   12;

runTimeModifiable true;

adjustTimeStep  yes;

maxCo           0.5;

maxDeltaT       1;

// ************************************************************************* //
--- END OF FILE ---

--- FILE: blastFoam/internalDetonation/internalDetonation/system/fvSchemes ---

FoamFile
{
    version     2.0;
    format      ascii;
    class       dictionary;
    location    "system";
    object      fvSchemes;
}
// * * * * * * * * * * * * * * * * * * * * * * * * * * * * * * * * * * * * * //

fluxScheme      Kurganov;

ddtSchemes
{
    default         Euler;
    timeIntegrator  RK2SSP;
}

gradSchemes
{
    default         cellMDLimited leastSquares 1.0;
}

divSchemes
{
    default         none;
    div(alphaRhoPhi.c4,lambda.c4) Riemann;
    div(alphaRhoPhi.c4,c.c4) Riemann;
}

laplacianSchemes
{
    default         Gauss linear corrected;
}

interpolationSchemes
{
    default             cubic;
    reconstruct(alpha)  Minmod;
    reconstruct(rho)    Minmod;
    reconstruct(U)      MinmodV;
    reconstruct(e)      Minmod;
    reconstruct(p)      Minmod;
    reconstruct(speedOfSound)      Minmod;

    reconstruct(lambda.c4)   Minmod;

    // Afterburn reaction progress variable
    reconstruct(c.c4)   Minmod;
}

snGradSchemes
{
    default         corrected;
}


// ************************************************************************* //
--- END OF FILE ---

--- FILE: blastFoam/internalDetonation/internalDetonation/system/fvSolution ---

FoamFile
{
    version     2.0;
    format      ascii;
    class       dictionary;
    location    "system";
    object      fvSolution;
}
// * * * * * * * * * * * * * * * * * * * * * * * * * * * * * * * * * * * * * //

solvers
{
    "(rho|rhoU|rhoE|alpha|.*)"
    {
        solver          diagonal;
    }
}


// ************************************************************************* //
--- END OF FILE ---

--- FILE: blastFoam/internalDetonation/internalDetonation/system/setFieldsDict ---

FoamFile
{
    version     2.0;
    format      ascii;
    class       dictionary;
    location    "system";
    object      setFieldsDict;
}
// * * * * * * * * * * * * * * * * * * * * * * * * * * * * * * * * * * * * * //

fields (alpha.c4);
nBufferLayers 1;

defaultFieldValues
(
    volScalarFieldValue alpha.c4 0
);


regions
(
    sphereToCell // Use cylinder for 3D
    {
        refineInternal yes;
        level 5;

        centre (0 0 0);
        radius 0.05;

        backup
        {
            centre (0 0 0);
            radius 0.25;
        }

        fieldValues
        (
            volScalarFieldValue alpha.c4    1
        );
    }
);


// ************************************************************************* //
--- END OF FILE ---

