--- FILE: blastFoam/shockTube_tabulated/0/T.orig ---

FoamFile
{
    version     2.0;
    format      ascii;
    class       volScalarField;
    object      T;
}
// * * * * * * * * * * * * * * * * * * * * * * * * * * * * * * * * * * * * * //

dimensions      [0 0 0 1 0 0 0];

internalField   uniform 300;

boundaryField
{
    walls
    {
        type            zeroGradient;
    }

    defaultFaces
    {
        type            empty;
    }
}

// ************************************************************************* //
--- END OF FILE ---

--- FILE: blastFoam/shockTube_tabulated/0/U.orig ---

FoamFile
{
    version     2.0;
    format      ascii;
    class       volVectorField;
    object      U;
}
// * * * * * * * * * * * * * * * * * * * * * * * * * * * * * * * * * * * * * //

dimensions      [0 1 -1 0 0 0 0];

internalField   uniform (0 0 0);

boundaryField
{
    walls
    {
        type            noSlip;
    }
    defaultFaces
    {
        type            empty;
    }
}

// ************************************************************************* //
--- END OF FILE ---

--- FILE: blastFoam/shockTube_tabulated/0/p.orig ---

FoamFile
{
    version     2.0;
    format      ascii;
    class       volScalarField;
    object      p.orig;
}
// * * * * * * * * * * * * * * * * * * * * * * * * * * * * * * * * * * * * * //

dimensions      [1 -1 -2 0 0 0 0];

internalField   uniform 1.0;

boundaryField
{
    walls
    {
        type            zeroGradient;
    }

    defaultFaces
    {
        type            empty;
    }
}

// ************************************************************************* //
--- END OF FILE ---

--- FILE: blastFoam/shockTube_tabulated/0/rho.orig ---

FoamFile
{
    version     2.0;
    format      ascii;
    class       volScalarField;
    object      rho;
}
// * * * * * * * * * * * * * * * * * * * * * * * * * * * * * * * * * * * * * //

dimensions      [1 -3 0 0 0 0 0];

internalField   uniform 1.0;

boundaryField
{
    walls
    {
        type            zeroGradient;
    }

    defaultFaces
    {
        type            empty;
    }
}

// ************************************************************************* //
--- END OF FILE ---

--- FILE: blastFoam/shockTube_tabulated/constant/T.csv ---
5.29832;6.29832;7.29832;8.29832;9.29832;10.2983;11.2983;12.2983;13.2983;14.2983;15.2983;16.2983;17.2983;18.2983;19.2983;20.2983;21.2983;22.2983;23.2983;24.2983;25.2983;26.2983;27.2983;28.2983;29.2983;30.2983;31.2983;32.2983;33.2983;34.2983;35.2983;36.2983;37.2983;38.2983;39.2983;40.2983;41.2983;42.2983;43.2983;44.2983;
5.29832;6.29832;7.29832;8.29832;9.29832;10.2983;11.2983;12.2983;13.2983;14.2983;15.2983;16.2983;17.2983;18.2983;19.2983;20.2983;21.2983;22.2983;23.2983;24.2983;25.2983;26.2983;27.2983;28.2983;29.2983;30.2983;31.2983;32.2983;33.2983;34.2983;35.2983;36.2983;37.2983;38.2983;39.2983;40.2983;41.2983;42.2983;43.2983;44.2983;
5.29832;6.29832;7.29832;8.29832;9.29832;10.2983;11.2983;12.2983;13.2983;14.2983;15.2983;16.2983;17.2983;18.2983;19.2983;20.2983;21.2983;22.2983;23.2983;24.2983;25.2983;26.2983;27.2983;28.2983;29.2983;30.2983;31.2983;32.2983;33.2983;34.2983;35.2983;36.2983;37.2983;38.2983;39.2983;40.2983;41.2983;42.2983;43.2983;44.2983;
5.29832;6.29832;7.29832;8.29832;9.29832;10.2983;11.2983;12.2983;13.2983;14.2983;15.2983;16.2983;17.2983;18.2983;19.2983;20.2983;21.2983;22.2983;23.2983;24.2983;25.2983;26.2983;27.2983;28.2983;29.2983;30.2983;31.2983;32.2983;33.2983;34.2983;35.2983;36.2983;37.2983;38.2983;39.2983;40.2983;41.2983;42.2983;43.2983;44.2983;
5.29832;6.29832;7.29832;8.29832;9.29832;10.2983;11.2983;12.2983;13.2983;14.2983;15.2983;16.2983;17.2983;18.2983;19.2983;20.2983;21.2983;22.2983;23.2983;24.2983;25.2983;26.2983;27.2983;28.2983;29.2983;30.2983;31.2983;32.2983;33.2983;34.2983;35.2983;36.2983;37.2983;38.2983;39.2983;40.2983;41.2983;42.2983;43.2983;44.2983;
5.29832;6.29832;7.29832;8.29832;9.29832;10.2983;11.2983;12.2983;13.2983;14.2983;15.2983;16.2983;17.2983;18.2983;19.2983;20.2983;21.2983;22.2983;23.2983;24.2983;25.2983;26.2983;27.2983;28.2983;29.2983;30.2983;31.2983;32.2983;33.2983;34.2983;35.2983;36.2983;37.2983;38.2983;39.2983;40.2983;41.2983;42.2983;43.2983;44.2983;
5.29832;6.29832;7.29832;8.29832;9.29832;10.2983;11.2983;12.2983;13.2983;14.2983;15.2983;16.2983;17.2983;18.2983;19.2983;20.2983;21.2983;22.2983;23.2983;24.2983;25.2983;26.2983;27.2983;28.2983;29.2983;30.2983;31.2983;32.2983;33.2983;34.2983;35.2983;36.2983;37.2983;38.2983;39.2983;40.2983;41.2983;42.2983;43.2983;44.2983;
--- END OF FILE ---

--- FILE: blastFoam/shockTube_tabulated/constant/p.csv ---
4.05074;5.05074;6.05074;7.05074;8.05074;9.05074;10.0507;11.0507;12.0507;13.0507;14.0507;15.0507;16.0507;17.0507;18.0507;19.0507;20.0507;21.0507;22.0507;23.0507;24.0507;25.0507;26.0507;27.0507;28.0507;29.0507;30.0507;31.0507;32.0507;33.0507;34.0507;35.0507;36.0507;37.0507;38.0507;39.0507;40.0507;41.0507;42.0507;43.0507;
6.35333;7.35333;8.35333;9.35333;10.3533;11.3533;12.3533;13.3533;14.3533;15.3533;16.3533;17.3533;18.3533;19.3533;20.3533;21.3533;22.3533;23.3533;24.3533;25.3533;26.3533;27.3533;28.3533;29.3533;30.3533;31.3533;32.3533;33.3533;34.3533;35.3533;36.3533;37.3533;38.3533;39.3533;40.3533;41.3533;42.3533;43.3533;44.3533;45.3533;
8.65591;9.65591;10.6559;11.6559;12.6559;13.6559;14.6559;15.6559;16.6559;17.6559;18.6559;19.6559;20.6559;21.6559;22.6559;23.6559;24.6559;25.6559;26.6559;27.6559;28.6559;29.6559;30.6559;31.6559;32.6559;33.6559;34.6559;35.6559;36.6559;37.6559;38.6559;39.6559;40.6559;41.6559;42.6559;43.6559;44.6559;45.6559;46.6559;47.6559;
10.9585;11.9585;12.9585;13.9585;14.9585;15.9585;16.9585;17.9585;18.9585;19.9585;20.9585;21.9585;22.9585;23.9585;24.9585;25.9585;26.9585;27.9585;28.9585;29.9585;30.9585;31.9585;32.9585;33.9585;34.9585;35.9585;36.9585;37.9585;38.9585;39.9585;40.9585;41.9585;42.9585;43.9585;44.9585;45.9585;46.9585;47.9585;48.9585;49.9585;
13.2611;14.2611;15.2611;16.2611;17.2611;18.2611;19.2611;20.2611;21.2611;22.2611;23.2611;24.2611;25.2611;26.2611;27.2611;28.2611;29.2611;30.2611;31.2611;32.2611;33.2611;34.2611;35.2611;36.2611;37.2611;38.2611;39.2611;40.2611;41.2611;42.2611;43.2611;44.2611;45.2611;46.2611;47.2611;48.2611;49.2611;50.2611;51.2611;52.2611;
15.5637;16.5637;17.5637;18.5637;19.5637;20.5637;21.5637;22.5637;23.5637;24.5637;25.5637;26.5637;27.5637;28.5637;29.5637;30.5637;31.5637;32.5637;33.5637;34.5637;35.5637;36.5637;37.5637;38.5637;39.5637;40.5637;41.5637;42.5637;43.5637;44.5637;45.5637;46.5637;47.5637;48.5637;49.5637;50.5637;51.5637;52.5637;53.5637;54.5637;
17.8663;18.8663;19.8663;20.8663;21.8663;22.8663;23.8663;24.8663;25.8663;26.8663;27.8663;28.8663;29.8663;30.8663;31.8663;32.8663;33.8663;34.8663;35.8663;36.8663;37.8663;38.8663;39.8663;40.8663;41.8663;42.8663;43.8663;44.8663;45.8663;46.8663;47.8663;48.8663;49.8663;50.8663;51.8663;52.8663;53.8663;54.8663;55.8663;56.8663;
--- END OF FILE ---

--- FILE: blastFoam/shockTube_tabulated/constant/phaseProperties ---

FoamFile
{
    version     2.0;
    format      ascii;
    class       dictionary;
    location    "constant";
    object      phaseProperties;
}
// * * * * * * * * * * * * * * * * * * * * * * * * * * * * * * * * * * * * * //

type        basic;
thermoType
{
    transport const;
    thermo      eTabulated;
    equationOfState tabulatedMG;
}

specie
{
    molWeight       28.97;
}
transport
{
    mu              0;              // Viscosity
    Pr              1;              // Prandtl number
}
equationOfState
{
    pCoeffs
    {
        file       "constant/p.csv";
        mod         ln;
        delim       ";";
        isReal      false;
        flipTable   false;
    }

    rhoCoeffs
    {
        mod         log10;

        n           7;
        delta       1.0;
        min         -3.0;
        isReal      false;
    }
    eCoeffs
    {
        mod         ln;

        n           40;
        min         11.8748;
        delta       1.0;
        isReal      false;
    }
}
thermodynamics
{
    TCoeffs
    {
        file        "constant/T.csv";
        mod          ln;
        delim       ";";
        isReal      false;
        flipTable   false;
    }

    rhoCoeffs
    {
        mod         log10;
        n           7;
        delta       1.0;
        min         -3.0;
        isReal      false;
    }
    eCoeffs
    {
        mod         ln;
        n           40;
        min         11.8748;
        delta       1.0;
        isReal      false;
    }
}

// ************************************************************************* //
--- END OF FILE ---

--- FILE: blastFoam/shockTube_tabulated/system/blockMeshDict ---

FoamFile
{
    version     2.0;
    format      ascii;
    class       dictionary;
    object      blockMeshDict;
}
// * * * * * * * * * * * * * * * * * * * * * * * * * * * * * * * * * * * * * //
convertToMeters 1;

vertices
(
    (0 -1 -1)
    (100 -1 -1)
    (100 1 -1)
    (0 1 -1)
    (0 -1 1)
    (100 -1 1)
    (100 1 1)
    (0 1 1)
);

blocks
(
    hex (0 1 2 3 4 5 6 7) (500 1 1) simpleGrading (1 1 1)
);

edges
(
);

boundary
(
    walls
    {
        type patch;
        faces
        (
            (1 2 6 5)
            (0 4 7 3)
        );
    }
);

mergePatchPairs
(
);
--- END OF FILE ---

--- FILE: blastFoam/shockTube_tabulated/system/controlDict ---

FoamFile
{
  version     2.0;
  format      ascii;
  class       dictionary;
  location    "system";
  object      controlDict;
}
// * * * * * * * * * * * * * * * * * * * * * * * * * * * * * * * * * * * * * //

application     blastFoam;

startFrom       startTime;

startTime       0;

stopAt          endTime;

endTime         .02;

writeControl    adjustableRunTime;

writeInterval   .001;

writeFormat     ascii;

writePrecision  6;

writeCompression off;

timeFormat      general;

timePrecision   12;

runTimeModifiable true;

adjustTimeStep  yes;

deltaT          1e-8;

maxCo           0.5;

// ************************************************************************* //


functions
{
}
--- END OF FILE ---

--- FILE: blastFoam/shockTube_tabulated/system/fvSchemes ---

FoamFile
{
    version     2.0;
    format      ascii;
    class       dictionary;
    location    "system";
    object      fvSchemes;
}
// * * * * * * * * * * * * * * * * * * * * * * * * * * * * * * * * * * * * * //

fluxScheme      HLLC;

ddtSchemes
{
    default         Euler;
    timeIntegrator  RK4SSP;
}

gradSchemes
{
    default         cellMDLimited leastSquares 1.0;
}

divSchemes
{
    default         none;
}

laplacianSchemes
{
    default         Gauss linear corrected;
}

limiter quadraticMUSCL Minmod;
limiterV quadraticMUSCL Minmod;
interpolationSchemes
{
    default             linear;
    reconstruct(rho)    $limiter;
    reconstruct(U)      $limiterV;
    reconstruct(e)      $limiter;
    reconstruct(p)      $limiter;
    reconstruct(speedOfSound)      $limiter;
}

snGradSchemes
{
    default         corrected;
}

// ************************************************************************* //
--- END OF FILE ---

--- FILE: blastFoam/shockTube_tabulated/system/fvSolution ---

FoamFile
{
    version     2.0;
    format      ascii;
    class       dictionary;
    location    "system";
    object      fvSolution;
}
// * * * * * * * * * * * * * * * * * * * * * * * * * * * * * * * * * * * * * //

solvers
{
    "(rho|rhoU|rhoE|alpha)"
    {
        solver          diagonal;
    }
    "(rho|rhoU|rhoE|alpha)Final"
    {
        solver          diagonal;
    }

    "(U|e)"
    {
        solver          PBiCGStab;
        preconditioner  DIC;
        tolerance       1e-6;
        relTol          0.1;
    }

    "(U|e)Final"
    {
        $U;
        relTol          0;
    }
}

// ************************************************************************* //
--- END OF FILE ---

--- FILE: blastFoam/shockTube_tabulated/system/sampleDict ---


FoamFile
{
    version         2.0;
    format          ascii;
    class           dictionary;
    location        system;
    object          sampleDict;
}

// * * * * * * * * * * * * * * * * * * * * * * * * * * * * * * * * * * * * //

type sets;
libs ("libsampling.so");

setFormat raw;

surfaceFormat vtk;

interpolationScheme cell;

// Fields to sample.
fields
(
    p
    rho
    U
);


sets
(
    Centerline
    {
        type        lineCell;
        axis        x;

        start       (0 0.5 0.5);
        end         (100 0.5 0.5);
    }
);


surfaces ();

// *********************************************************************** //
--- END OF FILE ---

--- FILE: blastFoam/shockTube_tabulated/system/setFieldsDict ---

FoamFile
{
  version     2.0;
  format      ascii;
  class       dictionary;
  location    "system";
  object      setFieldsDict;
}
// * * * * * * * * * * * * * * * * * * * * * * * * * * * * * * * * * * * * * //

defaultFieldValues
(
    volScalarFieldValue rho 0.125
    volScalarFieldValue p 1.0e5
);

regions
(
    boxToCell
    {
        box (0 -1 -1) (50 1 1);
        fieldValues
        (
            volScalarFieldValue rho 1
            volScalarFieldValue p 1.0e6
        );
    }
);

// ************************************************************************* //
--- END OF FILE ---

