--- FILE: blastFoam/axisymmetricCharge/0/T.orig ---

FoamFile
{
    version     2.0;
    format      ascii;
    class       volScalarField;
    object      T;
}
// * * * * * * * * * * * * * * * * * * * * * * * * * * * * * * * * * * * * * //

dimensions      [0 0 0 1 0 0 0];

internalField   uniform 288;

boundaryField
{
    outlet
    {
        type            zeroGradient;
    }

    ground
    {
        type            zeroGradient;
    }

    wedge0
    {
        type            wedge;
    }
    wedge1
    {
        type            wedge;
    }
}

// ************************************************************************* //
--- END OF FILE ---

--- FILE: blastFoam/axisymmetricCharge/0/U.orig ---

FoamFile
{
    version     2.0;
    format      ascii;
    class       volVectorField;
    object      U;
}
// * * * * * * * * * * * * * * * * * * * * * * * * * * * * * * * * * * * * * //

dimensions      [0 1 -1 0 0 0 0];

internalField   uniform (0 0 0);

boundaryField
{
    outlet
    {
        type            zeroGradient;
    }

    ground
    {
        type            slip;
    }

    wedge0
    {
        type            wedge;
    }
    wedge1
    {
        type            wedge;
    }
}

// ************************************************************************* //
--- END OF FILE ---

--- FILE: blastFoam/axisymmetricCharge/0/alpha.c4.orig ---

FoamFile
{
    version     2.0;
    format      ascii;
    class       volScalarField;
    object      alpha.c4;
}
// * * * * * * * * * * * * * * * * * * * * * * * * * * * * * * * * * * * * * //

dimensions      [0 0 0 0 0 0 0];

internalField   uniform 0;

boundaryField
{
    outlet
    {
        type            zeroGradient;
    }

    ground
    {
        type            zeroGradient;
    }

    wedge0
    {
        type            wedge;
    }
    wedge1
    {
        type            wedge;
    }
}

// ************************************************************************* //
--- END OF FILE ---

--- FILE: blastFoam/axisymmetricCharge/0/p.orig ---

FoamFile
{
    version     2.0;
    format      ascii;
    class       volScalarField;
    object      p;
}
// * * * * * * * * * * * * * * * * * * * * * * * * * * * * * * * * * * * * * //

dimensions      [1 -1 -2 0 0 0 0];

internalField   uniform 101298;

boundaryField
{
    outlet
    {
        type            pressureWaveTransmissive;
        value           $internalField;
    }

    ground
    {
        type            zeroGradient;
    }

    wedge0
    {
        type            wedge;
    }
    wedge1
    {
        type            wedge;
    }
}

// ************************************************************************* //
--- END OF FILE ---

--- FILE: blastFoam/axisymmetricCharge/0/rho.air.orig ---

FoamFile
{
    version     2.0;
    format      ascii;
    class       volScalarField;
    object      rho.air;
}
// * * * * * * * * * * * * * * * * * * * * * * * * * * * * * * * * * * * * * //

dimensions      [1 -3 0 0 0 0 0];

internalField   uniform 1.225;

boundaryField
{
    outlet
    {
        type            zeroGradient;
    }

    ground
    {
        type            zeroGradient;
    }

    wedge0
    {
        type            wedge;
    }
    wedge1
    {
        type            wedge;
    }
}

// ************************************************************************* //
--- END OF FILE ---

--- FILE: blastFoam/axisymmetricCharge/0/rho.c4.orig ---

FoamFile
{
    version     2.0;
    format      ascii;
    class       volScalarField;
    object      rho.c4;
}
// * * * * * * * * * * * * * * * * * * * * * * * * * * * * * * * * * * * * * //

dimensions      [1 -3 0 0 0 0 0];

internalField   uniform 1601;

boundaryField
{
    outlet
    {
        type            zeroGradient;
    }

    ground
    {
        type            zeroGradient;
    }

    wedge0
    {
        type            wedge;
    }
    wedge1
    {
        type            wedge;
    }
}

// ************************************************************************* //
--- END OF FILE ---

--- FILE: blastFoam/axisymmetricCharge/constant/dynamicMeshDict ---

FoamFile
{
    version     2.0;
    format      ascii;
    class       dictionary;
    object      dynamicMeshDict;
}
// * * * * * * * * * * * * * * * * * * * * * * * * * * * * * * * * * * * * * //

dynamicFvMesh   adaptiveFvMesh;
errorEstimator densityGradient;      // Model used to estimate error

// How often to refine
refineInterval 1;

// Refine field in between lower..upper (varies based on errorEstimator)
lowerRefineLevel 0.05;

// If value < unrefineLevel unrefine
unrefineLevel   0.05;

// Number of cells refined around high error cells
nBufferLayers   1;

// Refine cells only up to maxRefinement levels
maxRefinement   4;

// Write the refinement level as a volScalarField
dumpLevel       true;

// ************************************************************************* //
--- END OF FILE ---

--- FILE: blastFoam/axisymmetricCharge/constant/phaseProperties ---

FoamFile
{
    version     2.0;
    format      ascii;
    class       dictionary;
    location    "constant";
    object      phaseProperties;
}
// * * * * * * * * * * * * * * * * * * * * * * * * * * * * * * * * * * * * * //

phases (c4 air);   // List of phases

c4
{
    type detonating;
    reactants
    {
        thermoType
        {
            transport   const;
            thermo      eConst;
            equationOfState Murnaghan;
        }
        equationOfState
        {
            rho0            1601;
            n               7.4;
            kappa           3.9e11;
            Gamma           0.35;
            pRef            101298;
        }
        specie
        {
            molWeight       222.12;
        }
        transport
        {
            mu              0;              // Viscosity
            Pr              1;              // Prandtl number
        }
        thermodynamics
        {
            Cv              1000;           // Heat capacity
            Hf              0.0;
        }
    }
    products
    {
        thermoType
        {
            transport   const;
            thermo      eConst;
            equationOfState JWL;
        }
        equationOfState
        {
            rho0      1601;
            A         609.77e9;
            B         12.95e9;
            R1        4.50;
            R2        1.4;
            omega     0.25;
        }
        specie
        {
            molWeight       55.0;
        }
        transport
        {
            mu              0;              // Viscosity
            Pr              1;              // Prandtl number
        }
        thermodynamics
        {
            Cv              850;           // Heat capacity
            Hf              0.0;
        }
    }

    activationModel linear;
    initiation
    {
        E0              9.0e9;

        points     ((0 0 0));     // Detonation points
        vDet       7850;            // Detonation velocity [m/s]
    }

    residualRho     1e-6;           // Minimum density of the phase
    residualAlpha   1e-10;          // Minimum volume fraction used for division
}

air
{
    type basic;
    thermoType
    {
        transport   const;
        thermo      eConst;
        equationOfState idealGas;
    }
    equationOfState
    {
        gamma           1.4;            // Heat capactiy ratio
        a               0;
    }
    specie
    {
        molWeight       28.97;
    }
    transport
    {
        mu              0;
        Pr              1;
    }
    thermodynamics
    {
        Cv          718;
        Hf          0;
    }

    residualRho     1e-6;
    residualAlpha   1e-6;
}

// ************************************************************************* //
--- END OF FILE ---

--- FILE: blastFoam/axisymmetricCharge/system/blockMeshDict ---

FoamFile
{
  version     2.0;
  format      ascii;
  class       dictionary;
  object      blockMeshDict;
}
// * * * * * * * * * * * * * * * * * * * * * * * * * * * * * * * * * * * * * //

convertToMeters 1;

H   20.0;
R   20.0;

cellSize 1;

nx  #calc "round($R / $cellSize)";
ny  #calc "round($H / $cellSize)";

x #calc "$R * cos(5.0 * Foam::constant::mathematical::pi/180)";
z #calc "$R * sin(5.0 * Foam::constant::mathematical::pi/180)";
nz #calc "-$R * sin(5.0 * Foam::constant::mathematical::pi/180)";
vertices
(
    (0 0 0)
    ($x 0 $nz)
    ($x $H  $nz)
    (0 $H 0)
    ($x 0 $z)
    ($x $H  $z)
    (0 $H 1)
);

blocks
(
    hex (0 1 2 3 0 4 5 3) ($nx $ny 1) simpleGrading (1 1 1)
);

edges
(
);

boundary
(
    ground
    {
        type patch;
        faces
        (
            (0 1 4 0)
        );
    }
    outlet
    {
        type patch;
        faces
        (
            (1 2 5 4)
            (3 2 5 3)
        );
    }
    wedge0
    {
        type wedge;
        faces
        (
            (0 1 2 3)
        );
    }
    wedge1
    {
        type wedge;
        faces
        (
            (0 4 5 3)
        );
    }
 );

mergePatchPairs
(
);

// ************************************************************************* //
--- END OF FILE ---

--- FILE: blastFoam/axisymmetricCharge/system/controlDict ---

FoamFile
{
  version     2.0;
  format      ascii;
  class       dictionary;
  location    "system";
  object      controlDict;
}
// * * * * * * * * * * * * * * * * * * * * * * * * * * * * * * * * * * * * * //

application     blastFoam;

startFrom       startTime;

startTime       0;

stopAt          endTime;

endTime         0.025;

writeControl    adjustableRunTime;

writeInterval   0.0005;

writeFormat     binary;

writePrecision  12;

writeCompression off;

timeFormat      general;

timePrecision   6;

runTimeModifiable true;

adjustTimeStep  yes;

deltaT          1e-8;

maxCo           0.5;

// ************************************************************************* //


functions
{
    impulse
    {
        type            impulse;
        writeControl    writeTime;
        writeInterval   1;

        pRef            101298;
    }
    dynamicPressure
    {
        type            dynamicPressure;
        writeControl    writeTime;
        writeInterval   1;

        store yes;
    }
    overpressure
    {
        type            overpressure;
        writeControl    writeTime;
        writeInterval   1;

        pRef            101298;
        store yes;
    }
    fieldMinMax
    {
        type            fieldMinMax;
        writeControl    writeTime;
        writeInterval   1;

        fields
        (
            speedOfSound
            dynamicP
            overpressure
        );
    }

    pressureProbes
    {
        type           blastProbes;
        writeControl   timeStep;
        writeInterval  1;
        adjustLocations yes;

        probeLocations
        (
            (1 0 0)
            (2 0 0)
            (5 0 0)
            (10 0 0)
            (15 0 0)
            (20 0 0)
        );
        fields
        (
            p
            impulse
            dynamicP
        );
    }
}
--- END OF FILE ---

--- FILE: blastFoam/axisymmetricCharge/system/fvSchemes ---

FoamFile
{
    version     2.0;
    format      ascii;
    class       dictionary;
    location    "system";
    object      fvSchemes;
}
// * * * * * * * * * * * * * * * * * * * * * * * * * * * * * * * * * * * * * //

fluxScheme      Kurganov;

ddtSchemes
{
    default         Euler;
    timeIntegrator  RK2SSP;
}

gradSchemes
{
    default         cellMDLimited leastSquares 1.0;
}

divSchemes
{
    default             none;
    div(alphaRhoPhi.c4,lambda.c4) Riemann;
}

laplacianSchemes
{
    default         Gauss linear corrected;
}

interpolationSchemes
{
    default             cubic;
    reconstruct(alpha)  Minmod;
    reconstruct(rho)    Minmod;
    reconstruct(U)      MinmodV;
    reconstruct(e)      Minmod;
    reconstruct(p)      Minmod;
    reconstruct(speedOfSound)      Minmod;

    "reconstruct(.*)"   Minmod;
}

snGradSchemes
{
    default         corrected;
}

wallDist
{
    method meshWave;
}


// ************************************************************************* //
--- END OF FILE ---

--- FILE: blastFoam/axisymmetricCharge/system/fvSolution ---

FoamFile
{
    version     2.0;
    format      ascii;
    class       dictionary;
    location    "system";
    object      fvSolution;
}
// * * * * * * * * * * * * * * * * * * * * * * * * * * * * * * * * * * * * * //

solvers
{
    "(rho|rhoU|rhoE|alpha)"
    {
        solver          diagonal;
    }

    "(U|e)"
    {
        solver          PBiCGStab;
        preconditioner  DIC;
        tolerance       1e-6;
        relTol          0;
    }
}


// ************************************************************************* //
--- END OF FILE ---

--- FILE: blastFoam/axisymmetricCharge/system/setFieldsDict ---

FoamFile
{
  version     2.0;
  format      ascii;
  class       dictionary;
  location    "system";
  object      setFieldsDict;
}
// * * * * * * * * * * * * * * * * * * * * * * * * * * * * * * * * * * * * * //

fields (alpha.c4);
nBufferLayers 5;

defaultFieldValues
(
    volScalarFieldValue alpha.c4 0
);
regions
(
    sphereToCell
    {
        centre (0 0 0);
        radius 0.25;

        backup
        {
            centre (0 0 0);
            radius 1;
        }
        level 5;
        refineInternal yes;

        fieldValues
        (
            volScalarFieldValue alpha.c4 1
        );
    }
);

// ************************************************************************* //
--- END OF FILE ---

