--- FILE: blastFoam/movingCone/0/T ---

FoamFile
{
    version     2.0;
    format      ascii;
    class       volScalarField;
    object      T;
}
// * * * * * * * * * * * * * * * * * * * * * * * * * * * * * * * * * * * * * //

dimensions      [0 0 0 1 0 0 0];

internalField   uniform 300;

boundaryField
{
    movingWall
    {
        type            zeroGradient;
    }

    farFieldMoving
    {
        type            zeroGradient;
    }

    fixedWall
    {
        type            zeroGradient;
    }

    left
    {
        type            inletOutlet;
        inletValue      $internalField;
    }

    farField
    {
        type            zeroGradient;
    }

    back
    {
        type            wedge;
    }

    front
    {
        type            wedge;
    }
}

// ************************************************************************* //
--- END OF FILE ---

--- FILE: blastFoam/movingCone/0/U ---

FoamFile
{
    version     2.0;
    format      ascii;
    class       volVectorField;
    object      U;
}
// * * * * * * * * * * * * * * * * * * * * * * * * * * * * * * * * * * * * * //

dimensions      [0 1 -1 0 0 0 0];

internalField   uniform (0 0 0);

boundaryField
{
    movingWall
    {
        type            movingWallVelocity;
        value           $internalField;
    }

    farFieldMoving
    {
        type            maxwellSlipU;
        accommodationCoeff 0.85;
        Uwall           uniform (0 0 0);
        value           uniform (0 0 0);
    }

    fixedWall
    {
        type            noSlip;
    }

    left
    {
        type            pressureInletOutletVelocity;
        value           $internalField;
    }

    farField
    {
        type            noSlip;
    }

    back
    {
        type            wedge;
    }

    front
    {
        type            wedge;
    }
}

// ************************************************************************* //
--- END OF FILE ---

--- FILE: blastFoam/movingCone/0/p ---

FoamFile
{
    version     2.0;
    format      ascii;
    class       volScalarField;
    object      p;
}
// * * * * * * * * * * * * * * * * * * * * * * * * * * * * * * * * * * * * * //

dimensions      [1 -1 -2 0 0 0 0];

internalField   uniform 1e5;

boundaryField
{
    movingWall
    {
        type            zeroGradient;
    }

    farFieldMoving
    {
        type            zeroGradient;
    }

    fixedWall
    {
        type            zeroGradient;
    }

    left
    {
        type            totalPressure;
        p0              $internalField;
    }

    farField
    {
        type            zeroGradient;
    }

    back
    {
        type            wedge;
    }

    front
    {
        type            wedge;
    }
}

// ************************************************************************* //
--- END OF FILE ---

--- FILE: blastFoam/movingCone/0/pointMotionUx ---

FoamFile
{
    version     2.0;
    format      ascii;
    class       pointScalarField;
    object      pointMotionU;
}
// * * * * * * * * * * * * * * * * * * * * * * * * * * * * * * * * * * * * * //

dimensions      [0 1 -1 0 0 0 0];

internalField   uniform 0;

boundaryField
{
    movingWall
    {
        type            uniformFixedValue;
        uniformValue    table
        (
            (0 160)
            (1.5e-5 160)
            (1.51e-5 0)
        );
    }
    farFieldMoving
    {
        type            slip;
    }
    fixedWall
    {
        type            uniformFixedValue;
        uniformValue    constant 0;
    }
    left
    {
        type            uniformFixedValue;
        uniformValue    constant 0;
    }
    farField
    {
        type            slip;
    }
    back
    {
        type            wedge;
    }
    front
    {
        type            wedge;
    }
}

// ************************************************************************* //
--- END OF FILE ---

--- FILE: blastFoam/movingCone/0/rho ---

FoamFile
{
    version     2.0;
    format      ascii;
    class       volScalarField;
    object      rho;
}
// * * * * * * * * * * * * * * * * * * * * * * * * * * * * * * * * * * * * * //

dimensions      [1 -3 0 0 0 0 0];

internalField   uniform 0.0;

boundaryField
{
    movingWall
    {
        type            zeroGradient;
    }

    farFieldMoving
    {
        type            zeroGradient;
    }

    fixedWall
    {
        type            zeroGradient;
    }

    left
    {
        type            zeroGradient;
    }

    farField
    {
        type            zeroGradient;
    }

    back
    {
        type            wedge;
    }

    front
    {
        type            wedge;
    }
}

// ************************************************************************* //
--- END OF FILE ---

--- FILE: blastFoam/movingCone/constant/dynamicMeshDict ---

FoamFile
{
    version     2.0;
    format      ascii;
    class       dictionary;
    location    "constant";
    object      dynamicMeshDict;
}
// * * * * * * * * * * * * * * * * * * * * * * * * * * * * * * * * * * * * * //

dynamicFvMesh   movingAdaptiveFvMesh;
errorEstimator  densityGradient;

motionSolver    velocityComponentLaplacian;

component       x;
diffusivity     directional (1 200 0);

// How often to refine
refineInterval  5;

// Refine field in between lower..upper (varies based on errorEstimator)
lowerRefineLevel 0.01;

// If value < unrefineLevel unrefine
unrefineLevel   0.01;

// Number of cells refined around high error cells
nBufferLayers   1;

// Refine cells only up to maxRefinement levels
maxRefinement  3;

// Write the refinement level as a volScalarField
dumpLevel       true;
// ************************************************************************* //
--- END OF FILE ---

--- FILE: blastFoam/movingCone/constant/phaseProperties ---

FoamFile
{
    version     2.0;
    format      ascii;
    class       dictionary;
    location    "constant";
    object      phaseProperties;
}
// * * * * * * * * * * * * * * * * * * * * * * * * * * * * * * * * * * * * * //

type basic;
calculateDensity yes;

thermoType
{
    transport       const;
    thermo          eConst;
    equationOfState idealGas;
}
equationOfState
{
    gamma       1.4;
}

specie
{
    molWeight   28.9;
}
thermodynamics
{
    Cp          1007;
    Cv          714;
    Hf          2.544e+06;
}
transport
{
    mu          1e-3;
    Pr          0.7;
}

// ************************************************************************* //
--- END OF FILE ---

--- FILE: blastFoam/movingCone/constant/turbulenceProperties ---

FoamFile
{
    version     2.0;
    format      ascii;
    class       dictionary;
    location    "constant";
    object      turbulenceProperties;
}
// * * * * * * * * * * * * * * * * * * * * * * * * * * * * * * * * * * * * * //

simulationType  laminar;


// ************************************************************************* //
--- END OF FILE ---

--- FILE: blastFoam/movingCone/system/blockMeshDict ---

FoamFile
{
    version     2.0;
    format      ascii;
    class       dictionary;
    object      blockMeshDict;
}
// * * * * * * * * * * * * * * * * * * * * * * * * * * * * * * * * * * * * * //

convertToMeters 0.001;

y1 0.7471460236;
y2 1.992389396;
y3 4.98097349;

z1 0.0653668071;
z2 0.1743114855;
z3 0.4357787137;

nz1 -0.0653668071;
nz2 -0.1743114855;
nz3 -0.4357787137;

vertices
(
    (-10    0       0)
    (-7     0       0)
    (-3.5   0       0)
    (2      0       0)

    (-10    $y1     $nz1)
    (-7     $y1     $nz1)

    (-3.5   $y2     $nz2)
    (2      $y2     $nz2)

    (-10    $y3     $nz3)
    (-7     $y3     $nz3)
    (-3.5   $y3     $nz3)
    (2      $y3     $nz3)

    (-10    $y1     $z1)
    (-7     $y1     $z1)

    (-3.5   $y2     $z2)
    (2      $y2     $z2)

    (-10    $y3     $z3)
    (-7     $y3     $z3)
    (-3.5   $y3     $z3)
    (2      $y3     $z3)
);

blocks
(
    hex (0 1 5 4 0 1 13 12) (15 7 1) simpleGrading (1 1 1)
    hex (2 3 7 6 2 3 15 14) (15 15 1) simpleGrading (1 1 1)
    hex (4 5 9 8 12 13 17 16) (15 15 1) simpleGrading (1 1 1)
    hex (5 6 10 9 13 14 18 17) (25 15 1) simpleGrading (1 1 1)
    hex (6 7 11 10 14 15 19 18) (15 15 1) simpleGrading (1 1 1)
);

edges
(
);

boundary
(
    movingWall
    {
        type wall;
        faces
        (
            (1 5 13 1)
            (5 6 14 13)
            (2 2 14 6)
        );
    }
    farFieldMoving
    {
        type patch;
        faces
        (
            (9 17 18 10)
        );
    }
    fixedWall
    {
        type wall;
        faces
        (
            (3 7 15 3)
            (7 11 19 15)
        );
    }
    axis
    {
        type empty;
        faces
        (
            (0 1 1 0)
            (2 3 3 2)
        );
    }
    left
    {
        type patch;
        faces
        (
            (0 0 12 4)
            (4 12 16 8)
        );
    }
    farField
    {
        type patch;
        faces
        (
            (8 16 17 9)
            (10 18 19 11)
        );
    }
    back
    {
        type wedge;
        faces
        (
            (0 4 5 1)
            (2 6 7 3)
            (4 8 9 5)
            (5 9 10 6)
            (6 10 11 7)
        );
    }
    front
    {
        type wedge;
        faces
        (
            (0 1 13 12)
            (2 3 15 14)
            (12 13 17 16)
            (13 14 18 17)
            (14 15 19 18)
        );
    }
);

mergePatchPairs
(
);

// ************************************************************************* //
--- END OF FILE ---

--- FILE: blastFoam/movingCone/system/controlDict ---

FoamFile
{
    version     2.0;
    format      ascii;
    class       dictionary;
    location    "system";
    object      controlDict;
}
// * * * * * * * * * * * * * * * * * * * * * * * * * * * * * * * * * * * * * //

application     blastFoam;

startFrom       startTime;

startTime       0;

stopAt          endTime;

endTime         0.00003;

deltaT          1e-08;

writeControl    adjustableRunTime;

writeInterval   5e-7;

purgeWrite      0;

writeFormat     binary;

writePrecision  6;

writeCompression off;

timeFormat      general;

timePrecision   6;

runTimeModifiable true;

adjustTimeStep  yes;

maxCo           0.5;

maxDeltaT       1;

// ************************************************************************* //
--- END OF FILE ---

--- FILE: blastFoam/movingCone/system/decomposeParDict ---

FoamFile
{
    version     2.0;
    format      ascii;
    class       dictionary;
    location    "system";
    object      decomposeParDict;
}
// * * * * * * * * * * * * * * * * * * * * * * * * * * * * * * * * * * * * * //

numberOfSubdomains 4; // this is number of proc

method         scotch; // automatic

simpleCoeffs // not auto
{
    n               ( 2 2 1 );
    delta           0.001;
}

distributed     no;

roots           ( );


// ************************************************************************* //
--- END OF FILE ---

--- FILE: blastFoam/movingCone/system/fvSchemes ---

FoamFile
{
    version     2.0;
    format      ascii;
    class       dictionary;
    location    "system";
    object      fvSchemes;
}
// * * * * * * * * * * * * * * * * * * * * * * * * * * * * * * * * * * * * * //

fluxScheme      HLLC;

ddtSchemes
{
    default         Euler;
    timeIntegrator  RK4SSP;
}

gradSchemes
{
    default         cellMDLimited leastSquares 1.0;
}

divSchemes
{
    default         none;
    div(((rho*nuEff)*dev2(T(grad(U)))))      Gauss linear;
}

laplacianSchemes
{
    default         Gauss linear corrected;

    laplacian(diffusivity,cellMotionU) Gauss linear uncorrected;
}

interpolationSchemes
{
    default         linear;
    reconstruct(rho) vanLeer;
    reconstruct(U)  vanLeerV;
    reconstruct(p)  vanLeer;
    reconstruct(e)  vanLeer;
    reconstruct(speedOfSound)  vanLeer;
}

snGradSchemes
{
    default         corrected;
}


// ************************************************************************* //
--- END OF FILE ---

--- FILE: blastFoam/movingCone/system/fvSolution ---

FoamFile
{
    version     2.0;
    format      ascii;
    class       dictionary;
    location    "system";
    object      fvSolution;
}
// * * * * * * * * * * * * * * * * * * * * * * * * * * * * * * * * * * * * * //

solvers
{
    p
    {
        solver          PBiCGStab;
        preconditioner  DILU;
        tolerance       1e-06;
        relTol          0.01;
    }

    pFinal
    {
        $p;
        relTol          0;
    }

    "pcorr.*"
    {
        solver          PCG;
        preconditioner  DIC;
        tolerance       1e-2;
        relTol          0;
    }

    "rho.*"
    {
        solver          diagonal;
        tolerance       1e-05;
        relTol          0;
    }

    "(U|h|e|R|k|epsilon|omega)"
    {
        solver          smoothSolver;
        smoother        symGaussSeidel;
        tolerance       1e-05;
        relTol          0.1;
    }

    "(U|h|e|R|k|epsilon|omega)Final"
    {
        $U;
        relTol          0;
    }

    cellMotionUx
    {
        solver          PCG;
        preconditioner  DIC;
        tolerance       1e-08;
        relTol          0;
    }
}

PIMPLE
{
    momentumPredictor   yes;
    correctPhi          yes;
    nOuterCorrectors    2;
    nCorrectors         2;
    transonic           yes;
    nNonOrthogonalCorrectors 0;

    rhoMin              0.1;
    rhoMax              100.0;
}

relaxationFactors
{
    equations
    {
        ".*"        1;
    }
}


// ************************************************************************* //
--- END OF FILE ---

