--- FILE: blastFoam/twoChargeDetonation/0/T.orig ---

FoamFile
{
    version     2.0;
    format      ascii;
    class       volScalarField;
    object      T;
}
// * * * * * * * * * * * * * * * * * * * * * * * * * * * * * * * * * * * * * //

dimensions      [0 0 0 1 0 0 0];

internalField   uniform 300;

boundaryField
{
    walls
    {
        type            zeroGradient;
    }
    outlet
    {
        type            zeroGradient;
    }
    "wedge.*"
    {
        type            wedge;
    }
}

// ************************************************************************* //
--- END OF FILE ---

--- FILE: blastFoam/twoChargeDetonation/0/U.orig ---

FoamFile
{
    version     2.0;
    format      ascii;
    class       volVectorField;
    object      U;
}
// * * * * * * * * * * * * * * * * * * * * * * * * * * * * * * * * * * * * * //

dimensions      [0 1 -1 0 0 0 0];

internalField   uniform (0 0 0);

boundaryField
{
    walls
    {
        type            slip;
    }
    outlet
    {
        type            zeroGradient;
    }
    "wedge.*"
    {
        type            wedge;
    }
}

// ************************************************************************* //
--- END OF FILE ---

--- FILE: blastFoam/twoChargeDetonation/0/alpha.RDX.orig ---

FoamFile
{
    version     2.0;
    format      ascii;
    class       volScalarField;
    object      alpha.RDX.orig;
}
// * * * * * * * * * * * * * * * * * * * * * * * * * * * * * * * * * * * * * //

dimensions      [0 0 0 0 0 0 0];

internalField   uniform 0;

boundaryField
{
    walls
    {
        type            zeroGradient;
    }
    outlet
    {
        type            zeroGradient;
    }
    "wedge.*"
    {
        type            wedge;
    }
}

// ************************************************************************* //
--- END OF FILE ---

--- FILE: blastFoam/twoChargeDetonation/0/alpha.gas.orig ---

FoamFile
{
    version     2.0;
    format      ascii;
    class       volScalarField;
    object      alpha.gas.orig;
}
// * * * * * * * * * * * * * * * * * * * * * * * * * * * * * * * * * * * * * //

dimensions      [0 0 0 0 0 0 0];

internalField   uniform 1;

boundaryField
{
    walls
    {
        type            zeroGradient;
    }
    outlet
    {
        type            zeroGradient;
    }
    "wedge.*"
    {
        type            wedge;
    }
}

// ************************************************************************* //
--- END OF FILE ---

--- FILE: blastFoam/twoChargeDetonation/0/alpha.tnt.orig ---

FoamFile
{
    version     2.0;
    format      ascii;
    class       volScalarField;
    object      alpha.tnt.orig;
}
// * * * * * * * * * * * * * * * * * * * * * * * * * * * * * * * * * * * * * //

dimensions      [0 0 0 0 0 0 0];

internalField   uniform 0;

boundaryField
{
    walls
    {
        type            zeroGradient;
    }
    outlet
    {
        type            zeroGradient;
    }
    "wedge.*"
    {
        type            wedge;
    }
}

// ************************************************************************* //
--- END OF FILE ---

--- FILE: blastFoam/twoChargeDetonation/0/p.orig ---

FoamFile
{
    version     2.0;
    format      ascii;
    class       volScalarField;
    object      p;
}
// * * * * * * * * * * * * * * * * * * * * * * * * * * * * * * * * * * * * * //

dimensions      [1 -1 -2 0 0 0 0];

internalField   uniform 101298;

boundaryField
{
    walls
    {
        type            zeroGradient;
    }
    outlet
    {
        type            pressureWaveTransmissive;
        value           $internalField;
    }
    "wedge.*"
    {
        type            wedge;
    }
}

// ************************************************************************* //
--- END OF FILE ---

--- FILE: blastFoam/twoChargeDetonation/0/rho.RDX.orig ---

FoamFile
{
    version     2.0;
    format      ascii;
    class       volScalarField;
    object      rho.RDX;
}
// * * * * * * * * * * * * * * * * * * * * * * * * * * * * * * * * * * * * * //

dimensions      [1 -3 0 0 0 0 0];

internalField   uniform 1160;

boundaryField
{
    walls
    {
        type            zeroGradient;
    }
    outlet
    {
        type            zeroGradient;
    }
    "wedge.*"
    {
        type            wedge;
    }
}

// ************************************************************************* //
--- END OF FILE ---

--- FILE: blastFoam/twoChargeDetonation/0/rho.gas.orig ---

FoamFile
{
    version     2.0;
    format      ascii;
    class       volScalarField;
    object      rho.gas;
}
// * * * * * * * * * * * * * * * * * * * * * * * * * * * * * * * * * * * * * //

dimensions      [1 -3 0 0 0 0 0];

internalField   uniform 1.225;

boundaryField
{
    walls
    {
        type            zeroGradient;
    }
    outlet
    {
        type            zeroGradient;
    }
    "wedge.*"
    {
        type            wedge;
    }
}

// ************************************************************************* //
--- END OF FILE ---

--- FILE: blastFoam/twoChargeDetonation/0/rho.tnt.orig ---

FoamFile
{
    version     2.0;
    format      ascii;
    class       volScalarField;
    object      rho.tnt;
}
// * * * * * * * * * * * * * * * * * * * * * * * * * * * * * * * * * * * * * //

dimensions      [1 -3 0 0 0 0 0];

internalField   uniform 1601;

boundaryField
{
    walls
    {
        type            zeroGradient;
    }
    outlet
    {
        type            zeroGradient;
    }
    "wedge.*"
    {
        type            wedge;
    }
}

// ************************************************************************* //
--- END OF FILE ---

--- FILE: blastFoam/twoChargeDetonation/constant/dynamicMeshDict ---

FoamFile
{
    version     2.0;
    format      ascii;
    class       dictionary;
    object      dynamicMeshDict;
}
// * * * * * * * * * * * * * * * * * * * * * * * * * * * * * * * * * * * * * //

dynamicFvMesh   adaptiveFvMesh;
errorEstimator densityGradient;

// How often to refine
refineInterval  3;
beginUnrefine 1e-6;

// Refine field in between lower..upper
lowerRefineLevel 0.05;

// If value < unrefineLevel unrefine
unrefineLevel   0.05;

// Have slower than 2:1 refinement
nBufferLayers   3;

// Refine cells only up to maxRefinement levels
maxRefinement   2;

// Write the refinement level as a volScalarField
dumpLevel       true;

// ************************************************************************* //
--- END OF FILE ---

--- FILE: blastFoam/twoChargeDetonation/constant/phaseProperties ---

FoamFile
{
    version     2.0;
    format      ascii;
    class       dictionary;
    location    "constant";
    object      phaseProperties;
}
// * * * * * * * * * * * * * * * * * * * * * * * * * * * * * * * * * * * * * //

phases (RDX tnt gas);

RDX
{
    type detonating;
    reactants
    {
        thermoType
        {
            transport   const;
            thermo      eConst;
            equationOfState Murnaghan;
        }
        equationOfState
        {
            rho0            1160;
            n               7.4;
            kappa           3.9e11;
            Gamma           0.35;
            pRef            101298;
        }
        specie
        {
            molWeight       222.12;
        }
        transport
        {
            mu              0;              // Viscosity
            Pr              1;              // Prandtl number
        }
        thermodynamics
        {
            Cv              1130.78;           // Heat capacity
            Hf              0.0;
        }
    }
    products
    {
        thermoType
        {
            transport   const;
            thermo      eConst;
            equationOfState JWL;
        }
        equationOfState
        {
            A               2.9867e11;
            B               4.11706e9;
            R1              4.95;
            R2              1.15;
            C               7.206147e8;
            omega           0.35;
            rho0            1160;
        }
        specie
        {
            molWeight       55.0;
        }
        transport
        {
            mu              0;              // Viscosity
            Pr              1;              // Prandtl number
        }
        thermodynamics
        {
            Cv              1000;           // Heat capacity
            Hf              0.0;
        }
    }

    activationModel linear;
    initiation
    {
        E0      4.0e9;
        points  ((0 0.55 0));
        vDet    7850;
    }

    residualRho     1e-6;           // Minimum density of the phase
    residualAlpha   1e-6;          // Minimum volume fraction used for division
}

tnt
{
    type detonating;
    reactants
    {
        thermoType
        {
            transport   const;
            thermo      eConst;
            equationOfState BirchMurnaghan3;
        }
        equationOfState
        {
            rho0            1601;
            K0              9.6e9;
            K0Prime         6.6;
            Gamma           0.35;
            pRef            101298;
        }
        specie
        {
            molWeight       227.13;
        }
        transport
        {
            mu              0;              // Viscosity
            Pr              1;              // Prandtl number
        }
        thermodynamics
        {
            Cv              1095;           // Heat capacity
            Hf              0.0;
        }
    }
    products
    {
        thermoType
        {
            transport   const;
            thermo      eConst;
            equationOfState JWL;
        }
        equationOfState
        {
            rho0        1601;
            A           371.21e9;
            B           3.23e9;
            R1          4.15;
            R2          0.95;
            omega       0.3;
        }
        specie
        {
            molWeight       55.0;
        }
        transport
        {
            mu              0;              // Viscosity
            Pr              1;              // Prandtl number
        }
        thermodynamics
        {
            Cv              1000;           // Heat capacity
            Hf              0.0;
        }
    }

    activationModel pressureBased;
    initiation
    {
        E0              7.0e9;
        I               0;
        G1              3.5083e-7;
        c               1.0;
        d               0.0;
        y               1.3;
        minLambda1      0.0;

        G2              0.0;

        pMin            5e5; // Cutoff pressure for activation
    }

    residualRho     1e-6;           // Minimum density of the phase
    residualAlpha   1e-6;          // Minimum volume fraction used for division
}

gas
{
    type basic;
    thermoType
    {
        transport   const;
        thermo      eConst;
        equationOfState idealGas;
    }
    equationOfState
    {
        gamma           1.4;            // Heat capactiy ratio
    }
    specie
    {
        molWeight       28.97;
    }
    transport
    {
        mu              0;
        Pr              1;
    }
    thermodynamics
    {
        type        eConst;
        Cv          718;
        Hf          0;
    }

    residualRho     1e-6;
    residualAlpha   1e-6;
}


// ************************************************************************* //
--- END OF FILE ---

--- FILE: blastFoam/twoChargeDetonation/system/blockMeshDict ---

FoamFile
{
    version     2.0;
    format      ascii;
    class       dictionary;
    object      blockMeshDict;
}
// * * * * * * * * * * * * * * * * * * * * * * * * * * * * * * * * * * * * * //

convertToMeters 1;

R 1.0;
x #calc "0.9961946981 * $R";
z #calc "0.0871557427 * $R";
nz #calc "-0.0871557427 * $R";

vertices
(
    (0.0    0.0     0.0) // bottom
    ($x     0.0     $nz)
    ($x     2.0     $nz)
    (0.0    2.0     0.0)
    ($x     0       $z)
    ($x     2.0     $z)
);

blocks
(
	 hex (0 1 2 3 0 4 5 3) (25 25 1) simpleGrading (1 1 1)
);

edges
(
);

boundary
(
    walls
    {
        type patch;
        faces
        (
            (0 1 4 0)
        );
    }
    outlet
    {
        type patch;
        faces
        (

            (1 2 5 4)
            (3 2 5 3)
        );
    }
    wedge0
    {
        type wedge;
        faces
        (
            (0 1 2 3)
        );
    }
    wedge1
    {
        type wedge;
        faces
        (
            (0 4 5 3)
        );
    }

);

mergePatchPairs
(
);

// ************************************************************************* //
--- END OF FILE ---

--- FILE: blastFoam/twoChargeDetonation/system/controlDict ---

FoamFile
{
  version     2.0;
  format      ascii;
  class       dictionary;
  location    "system";
  object      controlDict;
}
// * * * * * * * * * * * * * * * * * * * * * * * * * * * * * * * * * * * * * //

application     blastFoam;

startFrom       startTime;

startTime       0;

stopAt          endTime;

endTime         5e-4;

writeControl    adjustableRunTime;

writeInterval   1e-5;

writeFormat     binary;

writePrecision  10;

writeCompression off;

timeFormat      general;

timePrecision   12;

runTimeModifiable true;

adjustTimeStep  yes;

deltaT          1e-8;

maxCo           0.5;

// * * * * * * * * * * * * * * * * * * * * * * * * * * * * * * * * * * * * * //

functions
{}

// ************************************************************************* //
--- END OF FILE ---

--- FILE: blastFoam/twoChargeDetonation/system/fvSchemes ---

FoamFile
{
    version     2.0;
    format      ascii;
    class       dictionary;
    location    "system";
    object      fvSchemes;
}
// * * * * * * * * * * * * * * * * * * * * * * * * * * * * * * * * * * * * * //

fluxScheme      Kurganov;

ddtSchemes
{
    default         Euler;
    timeIntegrator  RK2SSP;
}

gradSchemes
{
    default         cellMDLimited leastSquares 1;
}

divSchemes
{
    default         none;
    div(((rho*nuEff)*dev2(T(grad(U))))) Gauss linear;
    div(alphaRhoPhi.tnt,lambda.tnt) Riemann;
    div(alphaRhoPhi.RDX,lambda.RDX) Riemann
    div(rhoPhi,k)   Riemann;
    div(rhoPhi,epsilon) Riemann;
}

laplacianSchemes
{
    default         Gauss linear corrected;
}

interpolationSchemes
{
    default             cubic;
    reconstruct(alpha)  vanLeer;
    reconstruct(rho)    vanLeer;
    reconstruct(U)      vanLeerV;
    reconstruct(e)      vanLeer;
    reconstruct(p)      vanLeer;
    reconstruct(speedOfSound)      vanLeer;
    "reconstruct\(lambda.*\)" vanLeer;

    reconstruct(k)      vanLeer;
    reconstruct(epsilon) vanLeer;
}

snGradSchemes
{
    default         corrected;
}


// ************************************************************************* //
--- END OF FILE ---

--- FILE: blastFoam/twoChargeDetonation/system/fvSolution ---

FoamFile
{
    version     2.0;
    format      ascii;
    class       dictionary;
    location    "system";
    object      fvSolution;
}
// * * * * * * * * * * * * * * * * * * * * * * * * * * * * * * * * * * * * * //

solvers
{
    "(rho|rhoU|rhoE|alpha|.*)"
    {
        solver          diagonal;
    }

    "(U|e|epsilon|k)"
    {
        solver          PBiCGStab;
        preconditioner  DIC;
        nSweeps         3;;
        tolerance       1e-09;
        relTol          0;
        minIter         1;
    }

}


// ************************************************************************* //
--- END OF FILE ---

--- FILE: blastFoam/twoChargeDetonation/system/setFieldsDict ---

FoamFile
{
  version     2.0;
  format      ascii;
  class       dictionary;
  location    "system";
  object      setFieldsDict;
}
// * * * * * * * * * * * * * * * * * * * * * * * * * * * * * * * * * * * * * //

fields (alpha.RDX alpha.tnt);
nBufferLayers 1;


defaultFieldValues
(
    volScalarFieldValue alpha.gas       1
    volScalarFieldValue alpha.RDX       0
    volScalarFieldValue alpha.tnt       0
);

regions
(
    sphereToCell
    {
        refineInternal yes;
        level 6;

        centre (0 0.55 0);
        radius 0.05;
        backup
        {
            centre (0 0.55 0);
            radius 0.25;
        }

        fieldValues
        (
            volScalarFieldValue alpha.RDX   1
            volScalarFieldValue alpha.gas   0
        );
    }
    cylinderToCell
    {
        level 5;
        refineInternal no;

        p1 (0 0.01 0);
        p2 (0 0.5 0);
        radius 0.05;

        backup
        {
            p1 (0 0 0);
            p2 (0 01 0);
            radius 0.25;
        }

        fieldValues
        (
            volScalarFieldValue alpha.tnt   1
            volScalarFieldValue alpha.gas   0
        );
    }
 );

// ************************************************************************* //
--- END OF FILE ---

