--- FILE: solids4Foam/flap/0/solid/D ---

FoamFile
{
    version     2.0;
    format      ascii;
    class       volVectorField;
    object      D;
}
// * * * * * * * * * * * * * * * * * * * * * * * * * * * * * * * * * * * * * //

dimensions      [0 1 0 0 0 0 0];

internalField   uniform (0 0 0);

boundaryField
{
    interface
    {
        type            solidTraction;
        traction        uniform (0 0 0);
        value           uniform (0 0 0);
        pressure        uniform 0;
    }
    flapBase
    {
        type            fixedValue;
        value           uniform (0 0 0);
    }
}

// ************************************************************************* //
--- END OF FILE ---

--- FILE: solids4Foam/flap/0/solid/DD ---

FoamFile
{
    version     2.0;
    format      ascii;
    class       volVectorField;
    object      DD;
}
// * * * * * * * * * * * * * * * * * * * * * * * * * * * * * * * * * * * * * //

dimensions      [0 1 0 0 0 0 0];

internalField   uniform (0 0 0);

boundaryField
{
    interface
    {
        type            solidTraction;
        traction        uniform (0 0 0);
        value           uniform (0 0 0);
        pressure        uniform 0;
    }
    flapBase
    {
        type            fixedValue;
        value           uniform (0 0 0);
    }
}

// ************************************************************************* //
--- END OF FILE ---

--- FILE: solids4Foam/flap/0/solid/T.orig ---

FoamFile
{
    version     2.0;
    format      ascii;
    class       volScalarField;
    object      T.orig;
}
// * * * * * * * * * * * * * * * * * * * * * * * * * * * * * * * * * * * * * //

dimensions      [0 0 0 1 0 0 0];

internalField   uniform 282.051811;

boundaryField
{
    interface
    {
        type            zeroGradient;
    }
    flapBase
    {
        type            zeroGradient;
    }
}

// ************************************************************************* //
--- END OF FILE ---

--- FILE: solids4Foam/flap/0/solid/p.orig ---

FoamFile
{
    version     2.0;
    format      ascii;
    class       volScalarField;
    object      p.orig;
}
// * * * * * * * * * * * * * * * * * * * * * * * * * * * * * * * * * * * * * //

dimensions      [1 -1 -2 0 0 0 0];

internalField   uniform 1e5;

boundaryField
{
    interface
    {
        type            zeroGradient;
    }
    flapBase
    {
        type            zeroGradient;
    }
}

// ************************************************************************* //
--- END OF FILE ---

--- FILE: solids4Foam/flap/0/fluid/T.orig ---

FoamFile
{
    version     2.0;
    format      ascii;
    class       volScalarField;
    object      T.orig;
}
// * * * * * * * * * * * * * * * * * * * * * * * * * * * * * * * * * * * * * //

dimensions      [0 0 0 1 0 0 0];

internalField   uniform 282.051811;

boundaryField
{
    interface
    {
        type            zeroGradient;
    }
    ground
    {
        type            zeroGradient;
    }
    outlet
    {
        type            zeroGradient;
    }
}

// ************************************************************************* //
--- END OF FILE ---

--- FILE: solids4Foam/flap/0/fluid/U.orig ---

FoamFile
{
    version     2.0;
    format      ascii;
    class       volVectorField;
    object      U.orig;
}
// * * * * * * * * * * * * * * * * * * * * * * * * * * * * * * * * * * * * * //

dimensions      [0 1 -1 0 0 0 0];

internalField   uniform (0 0 0);

boundaryField
{
    interface
    {
        type            movingWallVelocity;
        value           $internalField;
    }
    ground
    {
        type            slip;
    }
    outlet
    {
        type            zeroGradient;
    }
}

// ************************************************************************* //
--- END OF FILE ---

--- FILE: solids4Foam/flap/0/fluid/alpha.c4.orig ---

FoamFile
{
    version     2.0;
    format      ascii;
    class       volScalarField;
    object      alpha.c4.orig;
}
// * * * * * * * * * * * * * * * * * * * * * * * * * * * * * * * * * * * * * //

dimensions      [0 0 0 0 0 0 0];

internalField   uniform 0;

boundaryField
{
    interface
    {
        type            zeroGradient;
    }

    outlet
    {
        type            zeroGradient;
    }

    ground
    {
        type            zeroGradient;
    }
}

// ************************************************************************* //
--- END OF FILE ---

--- FILE: solids4Foam/flap/0/fluid/p.orig ---

FoamFile
{
    version     2.0;
    format      ascii;
    class       volScalarField;
    object      p.orig;
}
// * * * * * * * * * * * * * * * * * * * * * * * * * * * * * * * * * * * * * //

dimensions      [1 -1 -2 0 0 0 0];

internalField   uniform 0.90530979e5;

boundaryField
{
    interface
    {
        type            zeroGradient;
    }
    ground
    {
        type            zeroGradient;
    }
    outlet
    {
        type            pressureWaveTransmissive;
        value           $internalField;
    }
}

// ************************************************************************* //
--- END OF FILE ---

--- FILE: solids4Foam/flap/0/fluid/pointMotionU ---

FoamFile
{
    version     2.0;
    format      ascii;
    class       pointVectorField;
    object      pointMotionU;
}
// * * * * * * * * * * * * * * * * * * * * * * * * * * * * * * * * * * * * * //

dimensions      [0 1 0 0 0 0 0];

internalField   uniform (0 0 0);

boundaryField
{
    interface
    {
        type            fixedValue;
        value           uniform (0 0 0);
    }
    ground
    {
        type            slip;
    }
    outlet
    {
        type            slip;
    }
}

// ************************************************************************* //
--- END OF FILE ---

--- FILE: solids4Foam/flap/0/fluid/rho.air.orig ---

FoamFile
{
    version     2.0;
    format      ascii;
    class       volScalarField;
    object      rho.air;
}
// * * * * * * * * * * * * * * * * * * * * * * * * * * * * * * * * * * * * * //

dimensions      [1 -3 0 0 0 0 0];

internalField   uniform 1.225;

boundaryField
{
    interface
    {
        type            zeroGradient;
    }

    outlet
    {
        type            zeroGradient;
    }

    ground
    {
        type            zeroGradient;
    }
}

// ************************************************************************* //
--- END OF FILE ---

--- FILE: solids4Foam/flap/0/fluid/rho.c4.orig ---

FoamFile
{
    version     2.0;
    format      ascii;
    class       volScalarField;
    object      rho.c4;
}
// * * * * * * * * * * * * * * * * * * * * * * * * * * * * * * * * * * * * * //

dimensions      [1 -3 0 0 0 0 0];

internalField   uniform 1601;

boundaryField
{
    interface
    {
        type            zeroGradient;
    }

    outlet
    {
        type            zeroGradient;
    }

    ground
    {
        type            zeroGradient;
    }
}

// ************************************************************************* //
--- END OF FILE ---

--- FILE: solids4Foam/flap/constant/fsiProperties ---

FoamFile
{
    version     2.0;
    format      ascii;
    class       dictionary;
    object      fsiProperties;
}
// * * * * * * * * * * * * * * * * * * * * * * * * * * * * * * * * * * * * * //

fluidSolidInterface    weakCoupling;

weakCouplingCoeffs
{
    // Solid interface patch list
    solidPatch interface;

    // Fluid interface patch list
    fluidPatch interface;

    // Maximum number of outer FSI loop correctors within each time-step
    nOuterCorr 20;

    // Enable/disable coupling from the start
    coupled yes;

    // Method for transferring information between the interfaces
    interfaceTransferMethod AMI;

}

"fixedRelaxationCoeffs|AitkenCoeffs|IQNILSCoeffs"
{
    // Solid interface patch list
    solidPatch interface;

    // Fluid interface patch list
    fluidPatch interface;

    // Under-relaxation factor for passing the solid interface
    // displacement/velocity to the fluid interface
    // For fixedRelaxation, this value is used for all iterations
    // For Aitken, this value is used for the first iteration each time-step,
    // then it adaptively changes
    // For IQNILS, this value is used for the first two iterations each
    // time-step, then the IQNILS procedure is used
    relaxationFactor 0.4;

    // Tolerance for the FSI loop within each time-step
    outerCorrTolerance 1e-3;

    // Maximum number of outer FSI loop correctors within each time-step
    nOuterCorr 5;

    // Optional (defaults to off) Aitken setting to perform extra fluid mesh
    // motion step after the FSI loop in each time-step
    //additionalMeshCorrection yes;

    // Enable/disable coupling from the start
    coupled yes;

//     couplingStartTime 5e-5;
}
// ************************************************************************* //
--- END OF FILE ---

--- FILE: solids4Foam/flap/constant/physicsProperties ---

FoamFile
{
    version     2.0;
    format      ascii;
    class       dictionary;
    location    "constant";
    object      physicsProperties;
}
// * * * * * * * * * * * * * * * * * * * * * * * * * * * * * * * * * * * * * //

type    fluidSolidInteraction;


// ************************************************************************* //
--- END OF FILE ---

--- FILE: solids4Foam/flap/constant/solid/g ---

FoamFile
{
    version     2.0;
    format      ascii;
    class       uniformDimensionedVectorField;
    location    "constant";
    object      g;
}
// * * * * * * * * * * * * * * * * * * * * * * * * * * * * * * * * * * * * * //

dimensions      [0 1 -2 0 0 0 0];
value           ( 0 0 0 );

// ************************************************************************* //
--- END OF FILE ---

--- FILE: solids4Foam/flap/constant/solid/mechanicalProperties ---

FoamFile
{
    version     2.0;
    format      ascii;
    class       dictionary;
    object      mechanicalProperties;
}
// * * * * * * * * * * * * * * * * * * * * * * * * * * * * * * * * * * * * * //

planeStress no;

mechanical
(
    rubber
    {
        type        linearElastic;
        rho         rho [1 -3 0 0 0 0 0] 7850;
        E           E [1 -1 -2 0 0 0 0] 190e9;
        nu          nu [0 0 0 0 0 0 0] 0.3;
    }
);

// ************************************************************************* //
--- END OF FILE ---

--- FILE: solids4Foam/flap/constant/solid/solidProperties ---

FoamFile
{
    version     2.0;
    format      ascii;
    class       dictionary;
    object      solidProperties;
}
// * * * * * * * * * * * * * * * * * * * * * * * * * * * * * * * * * * * * * //

solidModel    linearGeometryTotalDisplacement;
//solidModel    unsLinearGeometry;
//solidModel    nonLinearGeometryTotalLagrangian;
// solidModel    nonLinearGeometryUpdatedLagrangian;
//solidModel    unsNonLinearGeometryTotalLagrangian;

"linearGeometryTotalDisplacementCoeffs|unsLinearGeometryCoeffs"
{}

nonLinearGeometryTotalLagrangianCoeffs
{}

nonLinearGeometryUpdatedLagrangianCoeffs
{}

unsNonLinearGeometryTotalLagrangianCoeffs
{}

unsNonLinearGeometryUpdatedLagrangianCoeffs
{}

// ************************************************************************* //
--- END OF FILE ---

--- FILE: solids4Foam/flap/constant/solid/thermophysicalProperties ---

FoamFile
{
    version     2.0;
    format      ascii;
    class       dictionary;
    location    "constant/heater";
    object      thermophysicalProperties;
}
// * * * * * * * * * * * * * * * * * * * * * * * * * * * * * * * * * * * * * //

type basic;

thermoType
{
    transport       constIso;
    thermo          eConst;
    equationOfState rhoConst;
}

specie
{
    molWeight       60.08;
}
equationOfState
{
    rho0             2500;
}
transport
{
    kappa           0.36;
}
thermodynamics
{
    Hf              0;
    Cv              800;
}


// ************************************************************************* //
--- END OF FILE ---

--- FILE: solids4Foam/flap/constant/fluid/dynamicMeshDict ---

FoamFile
{
    version     2.0;
    format      ascii;
    class       dictionary;
    object      dynamicMeshDict;
}
// * * * * * * * * * * * * * * * * * * * * * * * * * * * * * * * * * * * * * //

dynamicFvMesh   movingAdaptiveFvMesh;

errorEstimator densityGradient;      // Model used to estimate error
balance no;
motionSolver      velocityLaplacian;

"(displacement|velocity)LaplacianCoeffs"
{
    diffusivity quadratic inverseDistance (interface);
}

beginUnrefine 1e-5;

// How often to refine
refineInterval  3;

// Refine field in between lower..upper (varies based on errorEstimator)
lowerRefineLevel 0.01;

// If value < unrefineLevel unrefine
unrefineLevel   0.01;

// Number of cells refined around high error cells
nBufferLayers   3;

// Refine cells only up to maxRefinement levels
maxRefinement   1;

// Write the refinement level as a volScalarField
dumpLevel       true;

// ************************************************************************* //
--- END OF FILE ---

--- FILE: solids4Foam/flap/constant/fluid/fluidProperties ---

FoamFile
{
    version     2.0;
    format      ascii;
    class       dictionary;
    object      fluidProperties;
}
// * * * * * * * * * * * * * * * * * * * * * * * * * * * * * * * * * * * * * //

fluidModel blast;

blastCoeffs
{}

// ************************************************************************* //
--- END OF FILE ---

--- FILE: solids4Foam/flap/constant/fluid/g ---

FoamFile
{
    version     2.0;
    format      ascii;
    class       uniformDimensionedVectorField;
    location    "constant";
    object      g;
}
// * * * * * * * * * * * * * * * * * * * * * * * * * * * * * * * * * * * * * //

dimensions [0 1 -2 0 0 0 0];
value       (0 -9.81 0);

// ************************************************************************* //
--- END OF FILE ---

--- FILE: solids4Foam/flap/constant/fluid/phaseProperties ---

FoamFile
{
    version     2.0;
    format      ascii;
    class       dictionary;
    location    "constant";
    object      phaseProperties;
}
// * * * * * * * * * * * * * * * * * * * * * * * * * * * * * * * * * * * * * //

phases (c4 air);                // List of phases

c4
{
    type detonating;
    reactants
    {
        thermoType
        {
            transport   const;
            thermo      eConst;
            equationOfState Murnaghan;
        }
        equationOfState
        {
            Gamma           0.25;
            pRef            101298;
            rho0            1601;
            K0              0;
        }
        specie
        {
            molWeight       55.0;
        }
        transport
        {
            mu              0;              // Viscosity
            Pr              1;              // Prandtl number
        }
        thermodynamics
        {
            Cv              1400;           // Heat capacity
            Hf              0.0;
        }
    }
    products
    {
        thermoType
        {
            transport   const;
            thermo      eConst;
            equationOfState JWL;
        }
        equationOfState
        {
            rho0      1601;
            A         609.77e9;
            B         12.95e9;
            R1        4.50;
            R2        1.4;
            omega     0.25;
        }
        specie
        {
            molWeight       55.0;
        }
        transport
        {
            mu              0;              // Viscosity
            Pr              1;              // Prandtl number
        }
        thermodynamics
        {
            Cv              1400;           // Heat capacity
            Hf              0.0;
        }
    }

    activationModel pressureBased;
    initiation
    {
        E0              9.0e9;

        I               4.0e6;
        a               0.0367;
        b               0.667;
        x               7.0;
        maxLambdaI      0.022;

        G1              1.4997e-7;
        c               0.667;
        d               0.33;
        y               2.0;
        minLambda1      0.022;

        G2              0.0;
        e               0.667;
        f               0.667;
        z               3.0;
        minLambda2      0.022;

        pMin            101300;  // Above this pressure activation is                                    // "turned on" [Pa]

        useCOM      yes;            // Use the center of mass
        radius      0.05;           // Set cell with in 0.05 m of
                                    // COM

        vDet       7850;            // Detonation velocity [m/s]
    }

    residualRho     1e-6;           // Minimum density of the phase
    residualAlpha   1e-10;          // Minimum volume fraction used for division
}

air
{
    type basic;
    thermoType
    {
        transport   const;
        thermo      eConst;
        equationOfState idealGas;
    }
    equationOfState
    {
        gamma           1.4;            // Heat capactiy ratio
    }
    specie
    {
        molWeight       28.97;
    }
    transport
    {
        mu              0;
        Pr              1;
    }
    thermodynamics
    {
        type        eConst;
        Cv          718;
        Hf          0;
    }

    residualRho     1e-6;
    residualAlpha   1e-10;
}

// ************************************************************************* //
--- END OF FILE ---

--- FILE: solids4Foam/flap/constant/fluid/turbulenceProperties ---

FoamFile
{
    version     2.0;
    format      ascii;
    class       dictionary;
    location    "constant";
    object      turbulenceProperties;
}
// * * * * * * * * * * * * * * * * * * * * * * * * * * * * * * * * * * * * * //

simulationType laminar;

// ************************************************************************* //
--- END OF FILE ---

--- FILE: solids4Foam/flap/system/controlDict ---

FoamFile
{
    version     2.0;
    format      ascii;
    class       dictionary;
    location    "system";
    object      controlDict;
}
// * * * * * * * * * * * * * * * * * * * * * * * * * * * * * * * * * * * * * //

application     solids4Foam;

startFrom       latestTime;

startTime       0;

stopAt          endTime;

endTime         0.005;

deltaT          1e-7;

writeControl    adjustableRunTime;

runTimeModifiable yes;

writeInterval   1e-4;

purgeWrite      0;

writeFormat     ascii;

writePrecision  12;

writeCompression off;

timeFormat      general;

timePrecision   6;

maxCo           0.5;

adjustTimeStep  yes;

libs ("libblastSolids4Foam.so");
--- END OF FILE ---

--- FILE: solids4Foam/flap/system/decomposeParDict ---

FoamFile
{
    version     2.0;
    format      ascii;
    class       dictionary;
    location    "system";
    object      decomposeParDict;
}
// * * * * * * * * * * * * * * * * * * * * * * * * * * * * * * * * * * * * * //

numberOfSubdomains 4; // this is number of proc

method         scotch; // automatic

simpleCoeffs // not auto
{
    n               (8 4 1);
    delta           0.001;
}

hierarchicalCoeffs
{
    n               ( 4 3 2 );
    delta           0.001;
    order           xyz;
}

metisCoeffs
{
    // processorWeights ( 1 1 1 1 1 1 );
}

manualCoeffs
{
    dataFile        "";
}

distributed     no;

roots           ( );


// ************************************************************************* //
--- END OF FILE ---

--- FILE: solids4Foam/flap/system/fvSchemes ---

FoamFile
{
    version     2.0;
    format      ascii;
    class       dictionary;
    location    "system";
    object      fvSchemes;
}
// * * * * * * * * * * * * * * * * * * * * * * * * * * * * * * * * * * * * * //

fluxScheme      Kurganov;

ddtSchemes
{
    default         Euler;
    timeIntegrator  RK2SSP;
}

gradSchemes
{
    default         cellMDLimited leastSquares 1.0;
}

divSchemes
{
    default         none;
}

laplacianSchemes
{
    default         Gauss linear corrected;
}

interpolationSchemes
{
    default             cubic;
    reconstruct(rho)    linearMUSCL vanLeer;
    reconstruct(U)      linearMUSCL vanLeer;
    reconstruct(e)      linearMUSCL vanLeer;
    reconstruct(p)      linearMUSCL vanLeer;
    reconstruct(c)      linearMUSCL vanLeer;
}

snGradSchemes
{
    default         corrected;
}


// ************************************************************************* //
--- END OF FILE ---

--- FILE: solids4Foam/flap/system/fvSolution ---

FoamFile
{
    version     2.0;
    format      ascii;
    class       dictionary;
    location    "system";
    object      fvSolution;
}
// * * * * * * * * * * * * * * * * * * * * * * * * * * * * * * * * * * * * * //

solvers
{
    "(rho|rhoU|rhoE|alpha)"
    {
        solver          diagonal;
    }

    "(U|e)"
    {
        solver          PBiCGStab;
        preconditioner  DIC;
        tolerance       1e-6;
        relTol          0;
    }
}


// ************************************************************************* //
--- END OF FILE ---

--- FILE: solids4Foam/flap/system/solid/blockMeshDict ---

FoamFile
{
    version     2.0;
    format      ascii;
    class       dictionary;
    object      blockMeshDict;
}
// * * * * * * * * * * * * * * * * * * * * * * * * * * * * * * * * * * * * * //

scale   1.0;

x1 -0.05;
x2 0.05;

y0 0.0;
y1 1.0;

w 0.3;

vertices
(
    ($x1 $y0 0)
    ($x2 $y0 0)
    ($x2 $y1 0)
    ($x1 $y1 0)

    ($x1 $y0 $w)
    ($x2 $y0 $w)
    ($x2 $y1 $w)
    ($x1 $y1 $w)
);

blocks
(
    hex (0 1 2 3 4 5 6 7) (10 50 1) simpleGrading (1 1 1)
);

edges
(
);

boundary
(
    flapBase
    {
        type wall;
        faces
        (
             (0 1 5 4)
        );
    }
    interface
    {
        type wall;
        faces
        (
            (1 2 6 5)
            (2 3 7 6)
            (3 0 4 7)
        );
    }
);

mergePatchPairs
(
);


// ************************************************************************* //
--- END OF FILE ---

--- FILE: solids4Foam/flap/system/solid/decomposeParDict ---
../decomposeParDict
--- END OF FILE ---

--- FILE: solids4Foam/flap/system/solid/fvSchemes ---

FoamFile
{
    version     2.0;
    format      ascii;
    class       dictionary;
    object      fvSchemes;
}
// * * * * * * * * * * * * * * * * * * * * * * * * * * * * * * * * * * * * * //

d2dt2Schemes
{
    default            Euler;
}

ddtSchemes
{
    default            Euler;
}

gradSchemes
{
    default            extendedLeastSquares 0;
}

divSchemes
{
    default            Gauss linear;
}

laplacianSchemes
{
    default            none;
    laplacian(DD,D)    Gauss linear corrected;
    laplacian(DDD,DD)  Gauss linear corrected;
}

snGradSchemes
{
    default            none;
    snGrad(D)          corrected;
    snGrad(DD)         corrected;
}

interpolationSchemes
{
    default            none;
    interpolate(impK)  linear;
    interpolate(grad(D)) linear;
    interpolate(grad(DD)) linear;
}

// ************************************************************************* //
--- END OF FILE ---

--- FILE: solids4Foam/flap/system/solid/fvSolution ---

FoamFile
{
    version     2.0;
    format      binary;
    class       dictionary;
    location    "system/ground";
    object      fvSolution;
}
// * * * * * * * * * * * * * * * * * * * * * * * * * * * * * * * * * * * * * //

solvers
{
    "(D|DD|T)"
    {
        solver          PCG;
        tolerance       1e-8;
        relTol          0.01;
        preconditioner  DIC;
    }
}

stressAnalysis
{
    compactNormalStress yes;
    nCorrectors     10;
    D               1e-06;
}

relaxationFactors
{
    D  0.5;
    DD 0.5;
//     T  1;
}

// ************************************************************************* //
--- END OF FILE ---

--- FILE: solids4Foam/flap/system/fluid/blockMeshDict ---

FoamFile
{
    version     2.0;
    format      ascii;
    class       dictionary;
    object      blockMeshDict;
}
// * * * * * * * * * * * * * * * * * * * * * * * * * * * * * * * * * * * * * //

scale   1.0;

x0 -3.0;
x1 -0.05;
x2 0.05;
x3 3.0;

y0 0.0;
y1 1.0;
y2 3.0;

w 0.3;

vertices
(
    ($x0  $y0  0)         // 0
    ($x1  $y0  0)         // 1
    ($x2  $y0  0)         // 2
    ($x3  $y0  0)         // 3
    ($x0  $y1  0)         // 4
    ($x1  $y1  0)         // 5
    ($x2  $y1  0)         // 6
    ($x3  $y1  0)         // 7
    ($x0  $y2  0)         // 8
    ($x1  $y2  0)         // 9
    ($x2  $y2  0)         // 10
    ($x3  $y2  0)         // 11

    ($x0  $y0  $w)         // 12
    ($x1  $y0  $w)         // 13
    ($x2  $y0  $w)         // 14
    ($x3  $y0  $w)         // 15
    ($x0  $y1  $w)         // 16
    ($x1  $y1  $w)         // 17
    ($x2  $y1  $w)         // 18
    ($x3  $y1  $w)         // 19
    ($x0  $y2  $w)         // 20
    ($x1  $y2  $w)         // 21
    ($x2  $y2  $w)         // 22
    ($x3  $y2  $w)         // 23
);

// Grading
h1 60;
h2 2;
v1 25;
v2 50;

blocks
(
    hex (0 1 5 4 12 13 17 16) ($h1 $v1 1 ) simpleGrading (1 1 1)
    hex (2 3 7 6 14 15 19 18) ($h1 $v1 1) simpleGrading (1 1 1)
    hex (4 5 9 8 16 17 21 20) ($h1 $v2 1) simpleGrading (1 1 1)
    hex (5 6 10 9 17 18 22 21) ($h2 $v2 1) simpleGrading (1 1 1)
    hex (6 7 11 10 18 19 23 22) ($h1 $v2 1 ) simpleGrading (1 1 1)
);

edges
(
);

boundary
(
    outlet
    {
        type patch;
        faces
        (
            (  0   4   16  12  )
            (  4   8   20  16  )
            (   3   7   19  15  )
            (   7   11  23  19  )
            (   8   9   21  20  )
            (   9   10  22  21  )
            (   10  11  23  22  )
        );
    }
    ground
    {
        type wall;
        faces
        (
            (   0   1   13  12  )
            (   2   3   15  14  )

        );
    }
    interface
    {
        type wall;
        faces
        (
            (1 5 17 13)
            (5 6 18 17)
            (2 6 18 14)
        );
    }
);

mergePatchPairs
(
);


// ************************************************************************* //
--- END OF FILE ---

--- FILE: solids4Foam/flap/system/fluid/decomposeParDict ---
../decomposeParDict
--- END OF FILE ---

--- FILE: solids4Foam/flap/system/fluid/fvSchemes ---

FoamFile
{
    version     2.0;
    format      ascii;
    class       dictionary;
    location    "system";
    object      fvSchemes;
}
// * * * * * * * * * * * * * * * * * * * * * * * * * * * * * * * * * * * * * //

fluxScheme          Kurganov;

ddtSchemes
{
    default         Euler;
    timeIntegrator  RK2SSP 3;
}

gradSchemes
{
    default         cellMDLimited leastSquares 1.0;
}

divSchemes
{
    default         none;
    div(((rho*nuEff)*dev2(T(grad(U))))) Gauss linear;
    div(alphaRhoPhi.c4,lambda.c4) Riemann;
}

laplacianSchemes
{
    default         Gauss linear corrected;
    laplacian(diffusivity,cellMotionU) Gauss linear uncorrected;
}

interpolationSchemes
{
    default         linear;
    reconstruct(alpha)  quadraticMUSCL Minmod;
    reconstruct(rho)    quadraticMUSCL Minmod;
    reconstruct(U)      quadraticMUSCL Minmod;
    reconstruct(e)      quadraticMUSCL Minmod;
    reconstruct(p)      quadraticMUSCL Minmod;
    reconstruct(speedOfSound) quadraticMUSCL Minmod;

    "reconstruct(.*)"   quadraticMUSCL Minmod;
}

snGradSchemes
{
    default         corrected;
}


// ************************************************************************* //
--- END OF FILE ---

--- FILE: solids4Foam/flap/system/fluid/fvSolution ---

FoamFile
{
    version     2.0;
    format      ascii;
    class       dictionary;
    location    "system";
    object      fvSolution;
}
// * * * * * * * * * * * * * * * * * * * * * * * * * * * * * * * * * * * * * //

solvers
{
    "(rho|rhoE|rhoU)"
    {
        solver diagonal;
    }

    "(U|cellDisplacement|cellMotionU|e).*"
    {
        solver          PCG;
        smoother        GaussSeidel;
        preconditioner  DIC;
        tolerance       1e-8;
        relTol          0;
        minIter         1;
    }
}


// ************************************************************************* //
--- END OF FILE ---

--- FILE: solids4Foam/flap/system/fluid/setFieldsDict ---

FoamFile
{
    version     2.0;
    format      ascii;
    class       dictionary;
    location    "system";
    object      setFieldsDict;
}
// * * * * * * * * * * * * * * * * * * * * * * * * * * * * * * * * * * * * * //

fields (alpha.c4);
nBufferLayers 5;

defaultFieldValues
(
    volScalarFieldValue alpha.c4    0
);


regions
(
    cylinderToCell
    {
        p1 (-0.5 0.5 -1);
        p2 (-0.5 0.5  1);
        radius 0.025;
        backup
        {
            p1 (-0.5 0.5 -1);
            p2 (-0.5 0.5  1 );
            radius 0.1;
        }
        refineInternal yes;
        level 3;

        fieldValues
        (
            volScalarFieldValue alpha.c4    1
        );
    }
);


// ************************************************************************* //
--- END OF FILE ---

